ID,name,smiles,space_group,inversion_symmetry,beta_packing,density,packing_coefficient
7494, SORYEE01 , CN(C)c1ccc(c2c(ccc(N(C)C)c12)N(=O)=O)N(=O)=O , Pccn ,1,0,1.4470978070299998,0.716662305948
7495, BOGFUA , CC1(C)OCC(O1)C1OC2OC(C)(C)OC2C1(O)CN(=O)=O , P32 ,0,0,1.4127068273899999,0.6988814184569999
7496, KODXUX , CON(C)C(=O)CCC(=O)N(C)OC , P21/c ,1,0,1.29146848846,0.696312615955
7499, PEYTUJ , CCCCOc1ccc(C=CC=CC=Cc2ccc(cc2)N(=O)=O)cc1 , P21/c ,1,0,1.2224735118,0.679788354797
7500, LETPIJ10 , O=N(=O)c1ccc(NN=C2CCC3CCCC3C3CCCC23)c(c1)N(=O)=O , P21/a ,0,0,1.35246267241,0.699247266474
7501, YOWFEX01 , Cc1cc(C)c(C2N(O)C(c3c(C)cc(C)cc3C)c3c(C)ccc4ccc(C)c2c34)c(C)c1 , P-1 ,1,1,1.18006546706,0.666912570138
7502, ATIXOQ , O=N(=O)c1c2ccccc2c2ccc3cccc4ccc1c2c34 , P21/c ,1,1,1.48598452394,0.74693877551
7503, HEMVAW , COc1cc(C(C)OC(=O)N2C(C)(C)CCCC2(C)C)c(cc1OC)N(=O)=O , P21/c ,1,0,1.3945012623800002,0.6855190138770001
7504, ROHBAR , O=C(NN=Cc1ccc(cc1)N(=O)=O)c1ccncc1 , P21/c ,1,0,1.4413333337600003,0.708160493827
7506, NIRRUC , CC1(C)OC2OC3COC(=Cc4ccc(cc4)N(=O)=O)C3(O)C2O1 , P21 ,0,0,1.4174753671899998,0.68172394234
7507, WARVAO , CCOC(=O)C=CCC(NC1OC(COC(=O)C(C)(C)C)C(OC(=O)C(C)(C)C)C(OC(=O)C(C)(C)C)C1OC(=O)C(C)(C)C)c1ccc(cc1)N(=O)=O , P212121 ,0,0,1.19791517278,0.647472865466
7508, ATUMAD , O=C(OCC(N=[N+]=[N-])C1COC(=N1)c1ccccc1)c1ccc(cc1)N(=O)=O , P21 ,0,0,1.4669757483599999,0.7177509423430001
7510, OQUPUM , O=N(=O)c1ccc(cc1)C=Nc1ccc(cc1)N=Cc1ccc(cc1)N(=O)=O , P-1 ,1,1,1.4551172328100002,0.713307593308
7511, MOMLIL , O=C(NC(=Cc1ccccc1)C(=O)c1ccccc1)c1ccc(cc1)N(=O)=O , P21/c ,1,0,1.3471710975100002,0.6838381410259999
7512, KIJGER , CCOc1ccc2cc(ccc2c1c1c(OCC)ccc2cc(ccc12)C1=[N+]([O-])C(C)(C)C(C)(C)N1[O])C1=[N+]([O-])C(C)(C)C(C)(C)N1[O] , P43212 ,0,0,1.22040386035,0.645894773965
7513, KEJHIT , CC(C)(C)OC(=O)N1C2CC(C3ON=C(C(OCc4ccccc4)C4COC(C)(C)O4)C23)C1=O , P1 ,0,1,1.2881279261799998,0.675914605474
7514, KAXHAS11 , CC1(C)N([O])C(=[N+]([O-])C1(C)C)c1ccc(cc1)N(=O)=O , P21/c ,1,0,1.3285546129,0.672701525054
7517, OJOZUK , O=C(OCc1ccccc1)C1CC(OC(=O)c2cc(cc(c2)N(=O)=O)N(=O)=O)C=C1 , P-1 ,1,1,1.4806605981,0.713212669683
7518, FUJSOS , CC(=O)OC1C(O)N(CCN1N(=O)=O)N(=O)=O , P21/c ,1,0,1.64888132942,0.7225177048710001
7519, WEKGEB , Nc1ccccc1NC(=O)c1ccccc1N(=O)=O , P-1 ,1,1,1.47345268951,0.735725254782
7520, ZOWSUZ01 , O=C1CCCC(=C1)Nc1ccc(cc1)N(=O)=O , P21/c ,1,1,1.35656331773,0.683114495798
7521, EWOYEU , None , Pnma ,1,0,1.38890075467,0.743618851049
7523, WEHCOD , O=N(=O)c1ccc2OC(=C(C#N)c2c1)c1ccccc1 , P21/n ,0,0,1.42420139456,0.692000586038
7524, WEZKUK , CC(C)C1CCC(C)C2(O)C(CCC(=O)C12)N(=O)=O , P212121 ,0,0,1.23879331299,0.675574897915
7525, MAMHOY , O=N(=O)c1ccc(C=CC=CC=Cc2ccc(cc2)N(=O)=O)cc1 , P21/c ,1,1,1.38526211391,0.70768321513
7526, CEQCEG , CCCCN(CCCC)c1ccc2C#CC#Cc3ccccc3C#CC#Cc3ccc(cc3C#CC#Cc2c1)N(=O)=O , Ia ,0,1,1.18831944621,0.651730616972
7527, MIQWUE , Cc1cc(O)ccc1c1ccc(c(C)c1)c1ccc(c(C)c1)N(=O)=O , P21/n ,0,0,1.30613395089,0.690466965554
7528, SUFZIC01 , O=N(=O)c1ccc2OCCOCCOCCOCCOc2c1 , Pca21 ,0,0,1.43929291174,0.725279106858
7530, CIPFOY , COc1c2Cc3cc(cc(Cc4cccc(Cc5cc(cc(Cc1ccc2)c5OC)N(=O)=O)c4OC)c3OC)N(=O)=O , R-3 ,1,1,1.21868695947,0.619767332174
7532, JOKTOS , O=N(=O)c1cc(c(Oc2cccc3cccnc23)c(c1)N(=O)=O)N(=O)=O , C2/c ,1,0,1.7328662245400002,0.736394410625
7533, FIHLAK , Cc1ccc(c(C)c1N(=O)=O)N(=O)=O , P-1 ,1,1,1.50776893033,0.720950102529
7534, BANYOG , COC1(OC)C2CC(CO)(C(C=C2C)C1=O)N(=O)=O , P212121 ,0,0,1.3723133487299999,0.6818730720489999
7536, YUJYIL01 , CC1(C)CC(CC(C)(C)N1[O])N=Cc1ccc(cc1)c1ccccc1 , P21/c ,1,0,1.16260897579,0.663513887243
7537, OLAXUV , COc1ccc(cc1)C1CC(C)(O)OCC1N(=O)=O , P21 ,0,1,1.33036603547,0.678534167971
7538, OYODOX , CC(C)(C)c1ccc(C=COC2CC(C)(C)N([O])C(C)(C)C2)cc1 , P21/c ,1,0,1.12316406692,0.678755534472
7539, KINWUC , CC1=CC2CN(Cc3ccccc3)CC2(C2=NO[N+](=C12)[O-])N(=O)=O , P21/n ,0,0,1.38385011602,0.682352941176
7540, KUBPOM , O=N(=O)N1CCCNC1=C(N(=O)=O)N(=O)=O , P21/a ,0,0,1.7932098539400003,0.759188712522
7541, PENHAT , C=CC1CC2=CC(=O)N3CC=CC23C=C1N(=O)=O , P21/n ,0,0,1.41750932687,0.713685371233
7542, TARLOQ , COc1ccc(OC(C(=O)NCCc2ccccc2)C(C)(C)C)c(c1)N(=O)=O , P-1 ,1,1,1.21849761494,0.6451090592800001
7544, JEGPAN , O=N(=O)c1ccc(N=NC(c2ccccc2)=C(N=Nc2ccc(cc2N(=O)=O)N(=O)=O)c2ccccc2)c(c1)N(=O)=O , Pnam ,0,0,1.3823429068700002,0.718504114226
7546, TOMMIS , Cc1ccc(Oc2cc(cc3Oc4ccc5ccccc5c4N=Cc23)N(=O)=O)cc1 , Pbca ,1,0,1.47351300116,0.733761846262
7547, HECMAD , OC(=O)CCCCCNC(=O)c1ccc(cc1)N(=O)=O , P21/n ,0,0,1.35650629244,0.7016840417
7550, HUTHUB , Cc1ccc(O)c(C=NNc2ccc(cc2N(=O)=O)N(=O)=O)c1 , P21/n ,0,0,1.52386216106,0.721549852475
7551, SIQLEL , O=C(Cc1ccccc1N(=O)=O)ON(C(=O)c1ccccc1)c1ccccc1 , C2/c ,1,0,1.33860725206,0.665850583248
7552, XIVJES , COC(=O)C1=C(C)NC(=O)NC1c1cccc(c1)N(=O)=O , P-1 ,1,1,1.47160723217,0.705176876618
7553, WOFFON , C1CCC(CC1)NC1=NC(=NO1)c1ccccc1 , P21/c ,1,1,1.29957249656,0.704371584699
7554, QEDGEO , Cc1ccc(cc1)C(=O)CN1C=CC(=N1)N(=O)=O , Pna21 ,0,0,1.4330927178,0.717773600668
7555, LAYGOK , CCC(C)C(=O)Oc1ccc(cc1N(=O)=O)N(=O)=O , P212121 ,0,0,1.4315224546899998,0.696441254058
7556, LABVEP , OC(=O)C=Cc1ccc(cc1)N(=O)=O , P21/a ,0,0,1.52763845704,0.737329739186
7557, QIRCID , CC1(C)N([O])C(=[N+]([O-])C1(C)C)c1cccc2ccccc12 , Cc ,0,0,1.24148939995,0.673748473748
7558, DERKUH , COC(=O)C1C(N2OC(=C(C(=O)OC)C12C(=O)OC)C(=O)OC)(C(=O)NC(C)(C)C)C(=O)OC , P21/c ,1,0,1.35355614996,0.662695837582
7559, XAKVOX , CCOC(=O)CC1(OC(=O)C(=C1c1ccccc1)c1ccccc1)c1ccc(cc1)N(=O)=O , P21/c ,1,0,1.34099052246,0.678501025868
7560, TUDZOI , CC(C)N=[N+]([O-])N(C)OC1OC(COC(C)=O)C(OC(C)=O)C(OC(C)=O)C1OC(C)=O , P212121 ,0,0,1.32109890206,0.656916574825
7561, LUGKOP , CCCCCCCCCCCCCCCCCC(=O)NN=C(C)C(C)=NO , P-1 ,1,1,1.06832245666,0.648741302973
7562, PICWEA , CC1(C)OC2C3CON4C(=O)NC(=O)C4(O3)C2O1 , P21 ,0,0,1.50148076613,0.6866166227089999
7563, MHPNBZ10 , CC(C)(C)C(CC(c1ccccc1)C(C)(C)C)OC(=O)c1cc(cc(c1)N(=O)=O)N(=O)=O , P-1 ,1,1,1.2122388684799998,0.654188034188
7565, PAXDUQ , COc1ccc(cc1)C1C2CN(C2ON1c1ccccc1)C(=O)OC(C)(C)C , P-1 ,1,1,1.2177088160299998,0.641876086207
7566, PUHFEE02 , OC1(CN(=O)=O)C(=O)Nc2ccccc12 , Pbca ,1,0,1.53400301843,0.712491882303
7567, SEPRIP , CC1=NC(=NO1)C1=C(N)N(C=N1)C1OC(CO)C(O)C1O , P212121 ,0,0,1.7819775412599999,0.746005998653
7568, AJAWEN , CON(C)C(=O)CNC(=O)C(NC(=O)c1ccccc1)N(C(NC(=O)c1ccccc1)C(=O)NCC(=O)N(C)OC)C(NC(=O)c1ccccc1)C(=O)NCC(=O)N(C)OC , P21/c ,1,1,1.30411477147,0.65218484547
7573, COSQEH , OC1C2CN3OC1C(O2)N1C3CC(=O)N(COCc2ccccc2)C1=O , P21 ,0,0,1.42875908119,0.675312432665
7574, IKAYAV , COc1ccc(cc1)N1C(C(Oc2ccccc2)C1=O)c1cccc(c1)N(=O)=O , P-1 ,1,1,1.34887505508,0.673354325986
7575, ROMJEJ , CC1(C)OC2OC(C(OCc3ccccc3)C2O1)C(O)(COC(=O)c1ccccc1)CN(=O)=O , P212121 ,0,0,1.3080385803299999,0.657411734164
7576, PONQOZ , CCNc1ccc(cc1N(=O)=O)C(=O)OCC , P21 ,0,0,1.36688002238,0.7071751102760001
7577, NEGQEX , Cc1cccc(C)c1N1C(=O)C2CC(C#N)(C#N)C3(C(=O)N(Cc4ccccc4)c4ccc(cc34)N(=O)=O)C2(C)C1=O , P21/c ,1,0,1.3026474374700001,0.648897317039
7578, HAPYOO , Cc1ccc2Nc3cc(Oc4cc(Nc5cc(Oc1c2)c(cc5N(=O)=O)N(=O)=O)ccc4C)c(cc3N(=O)=O)N(=O)=O , P212121 ,0,0,1.5621807948700002,0.7153016263850001
7580, FAFVOY , O=C(c1ccccc1)C1(CC2CC1C=C2)N(=O)=O , P21/c ,1,0,1.36031129862,0.703076422764
7581, HAFKEG , O=N(=O)C(C1=NNC(=N1)N=NC1=NC(=NN1)C(N(=O)=O)N(=O)=O)N(=O)=O , P21/n ,0,0,1.79814251945,0.709509666573
7582, IJIRAU , Cn1c2C=CC=C[n+]2c(c1[C-](C#N)C#N)N(=O)=O , P21/c ,1,0,1.5108736117299997,0.6885305562549999
7583, EMIMUI , CC(N)=NO , P212121 ,0,0,1.3113132355600001,0.7098519021199999
7584, PUJVAS , COc1ccc2ccc(OC)c(C(=O)c3ccc(cc3)N(=O)=O)c2c1 , P21/c ,1,0,1.3822461324200002,0.690111142776
7586, EKUMOM , O=N(=O)c1ccc(N=NC2(CCCCC2)N(=O)=O)c(c1)N(=O)=O , P21/c ,1,0,1.4529456626700001,0.696521458131
7587, EKAHAB , CC1(C)C2CC3C(=NOC3(C)C1C2)c1ccc(cc1)N(=O)=O , P-1 ,1,1,1.2906838914,0.674221119382
7590, AMUZIS , ON=C(c1ccccc1)C(=O)c1ccccc1 , P21/n ,0,1,1.33700332218,0.7049827467219999
7591, HEVRUV , O=N(=O)C(N(=O)=O)N(=O)=O , Pa3 ,0,0,1.8054653691799998,0.6855939918070001
7592, JEZZUJ , O=C1N(N(=O)=O)C23C4C5C6C4C2(C6C35)N1N(=O)=O , P21/c ,1,0,1.73553037711,0.738693549709
7593, DUJRIK , CC(CO)CC1=C(ON=C1C)C(C)C1C(O)CC2C3CCC4CC(O)CCC4(C)C3CCC12C , P21 ,0,0,1.11915099266,0.6290275826699999
7594, EFUPUR , CC(=C)C1CCC2C(C)(CCCC12C#N)OC(=O)c1ccc(cc1)N(=O)=O , P-1 ,1,1,1.26237889503,0.669016697588
7595, TOYYAH , Cc1ccnc(Cc2ccc(cc2N(=O)=O)N(=O)=O)c1 , P21/c ,1,0,1.4138128596700001,0.6933731088860001
7596, WELZIZ , O=N(=O)CC1C=C(OC2OC(CC12)c1cccc(c1)N(=O)=O)c1ccccc1 , P212121 ,0,0,1.4026636273100002,0.6957699611489999
7597, CALLIL , CC1(C)OCC(O1)C1OC(C)(C)OC1C(CN(=O)=O)C(C1OC2COC(C)(C)OC2C2OC(C)(C)OC12)N(=O)=O , P212121 ,0,0,1.29136616274,0.642932756722
7598, ZEXDIS , CCOC(=O)CCCC1CCC(C=C1)=NNc1ccc(cc1N(=O)=O)N(=O)=O , Fdd2 ,0,0,1.35769185075,0.6831965615469999
7599, YIKCIE , COc1ccc(cc1)N(C)C1=C(C(=NC2=NC=NN12)C)N(=O)=O , P21/n ,0,0,1.4626242440600001,0.711781119842
7600, CUTXAQ , CC(C)(C)C1=CC(C)(C(=O)C(C)(O)C1N(=O)=O)N(=O)=O , P21/n ,0,0,1.2849129245,0.645438282648
7601, DAWPAS , CC(C)(C)C1=CC(O)(C(=O)C(C)(C1N(=O)=O)N(=O)=O)C(C)(C)C , P21/c ,1,0,1.25486363856,0.6562339248969999
7602, NARLEA , COc1ccc(cc1CC1C(=O)C=C(C)CC1(C)C)N(=O)=O , P21/c ,1,0,1.27949834404,0.696261144665
7603, IZUGER , CCCCCCN(CCCCCC)c1ccc(cc1)C#Cc1c2cc3ccccc3cc2c(C#Cc2ccc(cc2)N(=O)=O)c2cc3ccccc3cc12 , P-1 ,1,1,1.20328000313,0.675365497076
7604, BEHROX , CC(C)=C1C2C(N(OC32CCCCC3C1=O)c1ccccc1)c1ccccc1 , C2/c ,1,0,1.2397120878299999,0.677145012422
7605, SAPGUO , OC1CCCC(C1O)[N+]([O-])(Cc1ccccc1)Cc1ccccc1 , P21/c ,1,1,1.23812419764,0.681669600201
7606, HABYAK , OC(=O)C1=[N+]([O-])C2(CCCCCC2=O)CC1 , P212121 ,0,0,1.3703314551899999,0.704435483871
7607, CUKSAD , COC(=O)C(Cc1ccccc1)N([O])=C(c1ccccc1)c1ccccc1 , P212121 ,0,0,1.27247982559,0.687555022009
7608, NURWIG , CC1OCC2OC(C)OC(C=NO)C2O1 , P212121 ,0,0,1.33264521226,0.662480376766
7609, QAJKUK , O=C(NN=Cc1ccc(cc1)N(=O)=O)C1=NNC(=C1)c1ccccc1 , P21/c ,1,1,1.4533138756600001,0.7171145686
7610, ISUQES , CC1=NC(=C(C#N)N1c1ccccc1)N(=O)=O , P21/n ,0,1,1.40228505166,0.690833621584
7611, NEPTAE , OC1C2CON(Cc3ccccc3)C2C(O)C21CCCCO2 , P1 ,0,1,1.3092733811700001,0.689999256727
7612, EREMOE , C1CC2CCC1ON2c1ccccc1 , P21/c ,1,0,1.2849420288,0.70764551235
7613, HIYDIC , CN(C(=O)C=Cc1ccccc1)c1ccccc1N(=O)=O , P21/n ,0,0,1.3331759496200002,0.697907861369
7614, HAGJAB , COc1ccc2c(c1)C(CCc1cc(OC)c(OC)c(OC)c21)=NO , P-1 ,1,1,1.28426519465,0.660242410597
7615, PECVIE , NNC(=O)Cc1ccccc1N(=O)=O , P21 ,0,0,1.46838000259,0.7120807726080001
7616, FUSJEJ , CN1C(=CC2=C1C1=NO[N+](=C1C=C2N(=O)=O)[O-])c1ccccc1 , P212121 ,0,1,1.5415954815000001,0.715324463119
7617, QQQAZG21 , CC(=O)C(=NNc1ccc(C)cc1N(=O)=O)C(=O)Nc1ccccc1 , P21/c ,1,1,1.41395121599,0.7084623323010001
7620, KEDKAI , O=N(=O)C1=NN(CC2=NN=NN2)C(=C1N=[N+]=[N-])N(=O)=O , P21/n ,0,0,1.8495202891599998,0.747748837938
7621, TIVRIA , COC(=O)c1ccc(cc1)C1=C2C=CC(=N2)C(=C2NC(=C(c3ccc(cc3)N(=O)=O)C3=NC(=C(C4=CC=C1N4)c1ccccc1)C=C3)C=C2)c1ccccc1 , P-1 ,1,1,1.28862066611,0.651669318336
7623, IJURIO , CCOC(=O)C1C(ON2c3ccccc3C(=Nc3ccccc3)C12c1ccccc1)c1ccccc1 , P21/n ,0,0,1.26078278278,0.657485875706
7624, POYYEI , COC(=O)c1cccc(NC(=O)c2cccc(NC(=O)c3cccc(NC(=O)c4cccc(NC(=O)c5cccc(c5OC)N(=O)=O)c4OC)c3OC)c2OC)c1OC , P-1 ,1,0,1.3894114842899998,0.6950402096520001
7625, SATFAV , CC(C)(C)C1=NN(c2ccccc2)c2nccc(c3ccc(cc3)N(=O)=O)c12 , P-1 ,1,1,1.31054427278,0.6827824858759999
7628, PYRDNO19 , [O-][n+]1ccccc1 , P41212 ,0,0,1.4923747482799998,0.787289915966
7629, QAPWUC , COC(=O)c1ccc(cc1)C1=CCC2(C)C(CCC3(C)C2CCC2C4C(CCC4(CCC32C)C#[N+][O-])C(C)=C)C1(C)C , P212121 ,0,0,1.1430500695299999,0.648361821701
7630, HACNUW , O=C(OCC1CC2CC(N1O2)c1ccccc1)c1cc(cc(c1)N(=O)=O)N(=O)=O , P212121 ,0,0,1.4450657753999998,0.688685277736
7631, PIXLUE , CC1C=C(C=O)C(C(C1c1ccccc1)N(=O)=O)c1ccccc1 , P212121 ,0,0,1.28884862519,0.6921263554930001
7632, NUNJIP , CC1(C)OCC(O1)C(C#C)N(O)Cc1ccccc1 , P32 ,0,0,1.1981130941299998,0.660856166927
7633, TUCNOW , COC(=O)C1(CC(ON2OC(C)(C)CC(c3ccc(OC)cc3)C12C)c1ccccc1)C(=O)OC , P21/c ,1,0,1.29383454389,0.68375132377
7635, LEBGAA , CC(C)(C)OC(=O)CCC(CCC(=O)OC(C)(C)C)(CCC(=O)OC(C)(C)C)N(=O)=O , Pbca ,1,0,1.1065412377500001,0.607227917573
7636, FOLSAB , CC(C)(O)C1CCC(C)(O1)C1C(O)CC2(C)C3CCC4C(C)(C)C(CCC54CC35CCC12C)=NO , P212121 ,0,0,1.135569069,0.641161616162
7638, NIBZAL , O=Cc1ccccc1N(=O)=O , P21 ,0,0,1.47248049312,0.7097414589100001
7641, QUZLII , O=N(=O)c1ccc(cc1)C=NNc1ccccn1 , P-1 ,1,1,1.4628305393099998,0.721142369991
7642, ZIMDUX , CCOC(=O)C1C2C3CC(C12)C1C3ON=C1c1ccc(OC)cc1 , P21/c ,1,0,1.33199362283,0.685471245173
7643, NETMEG , CC1(C)CCCCC1=NO , P21/n ,0,0,1.12120477566,0.662411118293
7645, TACHIO , CCCCCC(=O)ON=C(c1ccccc1)c1ccccn1 , P21 ,0,0,1.18193038514,0.651009506564
7646, LOWMOB , CC1=NN(c2ccccc2)C2=C1C(CN(=O)=O)C=C(O2)c1ccccc1 , P21 ,0,0,1.3870415951800001,0.712171175199
7647, YIBZAK , CC1=NOC(=C1C(=O)N=N=[N])N , Pn ,0,1,1.53031130574,0.71166589288
7649, KEGJIP , CON1C(=O)C2(CC3C4COC2CC4CN3C(=O)c2ccc(cc2)c2ccccc2)c2ccccc12 , P21/n ,0,0,1.30351269099,0.669841269841
7650, FIMJEQ , CC(=O)Oc1cc(C=O)cc2N3CC4C(N4C(C)=O)C(O3)(OC(C)=O)C(COC(N)=O)c12 , P212121 ,0,0,1.42236699571,0.6925389315989999
7652, HESFAN , Cc1ccc(C)c(c1)c1ccc(cc1)N(=O)=O , P21/c ,1,0,1.3108508123,0.70969012605
7653, DIWFEU , Nc1ccccc1c1ccc(cc1)N(=O)=O , C2/c ,1,0,1.36262231975,0.717616245695
7654, UFADIQ , COc1ccc(CC2(COC(C)(C)OC2)N(=O)=O)cc1 , P21/c ,1,0,1.3330636099,0.70113401486
7655, FASXEE , CCOc1cc(ccc1O)C=NOCCCCON=Cc1ccc(O)c(OCC)c1 , P21/c ,1,1,1.24275671628,0.658334972751
7656, DIBFOK , Cc1cc(cc(C)c1NC(=O)c1c(C)cc(cc1C)N(=O)=O)N(=O)=O , P21/n ,0,0,1.38660547575,0.69738731772
7657, YAQWIY , CC(C)(C)ON=C1NC(=O)NC=C1 , C2/c ,1,0,1.25484509604,0.649094046592
7659, XAJMUR , CC(=NOC(c1ccccc1)(c1ccccc1)c1ccccc1)c1ccccc1N(Cc1ccccc1)C(=O)C1(C)C=CCC=C1 , P-1 ,1,1,1.19521822664,0.6559260297
7660, EAZOBZ10 , CCOC(=O)c1ccc(cc1)N=[N+]([O-])c1ccc(cc1)C(=O)OCC , P-1 ,1,1,1.3254872510299998,0.6785612128149999
7661, YUTMOR , COC(=O)C1(C(=O)OC)c2ccccc2[N+](=C1c1ccccc1)[O-] , Cc ,0,1,1.44124626183,0.717790146362
7662, NUBZEQ , CC1=C2C(CC1)C(C)(CCC1C2C1(C)C)OCc1ccc(cc1)N(=O)=O , C2/c ,1,0,1.21614116419,0.6854204764049999
7663, YARQOX , COCC1(C=C(C(=O)C(=C1)C(C)(C)C)C(C)(C)C)N([O])=NO , P212121 ,0,1,1.1928592115799999,0.669555178268
7665, MNQUON10 , COC1=CC(=C2NC=CC=C2C1=O)N(=O)=O , Pca21 ,0,0,1.59455258473,0.749471494817
7666, ULEZES , CN(C)c1nc(nc(n1)C(N(=O)=O)(N(=O)=O)N(=O)=O)N(C)C , P21/n ,0,0,1.47549888363,0.665350331675
7667, SEMTAF01 , OC(=O)Cc1ccc(cc1)N(=O)=O , Pbca ,1,0,1.4423757272600002,0.687851851852
7668, IBESUD01 , O=C1CCCC2=CCON1C2 , C2/c ,1,0,1.32918987011,0.708328529152
7669, EACVOT , CC(CC(=O)N1C(C(C)N(C)C1=O)c1ccccc1)NOCc1ccccc1 , P21 ,0,0,1.25358623971,0.679189311594
7671, NOCQUR , CC1(C)N([O])C(=N([O])C1(C)C)c1cc(nc(n1)c1ccccc1)C1=N([O])C(C)(C)C(C)(C)N1[O] , P21/n ,0,0,1.31859211279,0.683533653846
7672, KUZJUL , CC1=NOC(=C1C)N=Cc1cccc(c1)N(=O)=O , P21/c ,1,1,1.4137007519100002,0.7060229700849999
7674, WIKCIE , O=N(=O)C(C1=NNN=N1)(N(=O)=O)N(=O)=O , P21/n ,0,0,1.91787988438,0.731740342493
7675, IMUWES , CCC1=NOC2CC3(CC12)NC(=O)C1(CC2ON=C(CC)C2C1)NC3=O , P-1 ,1,0,1.4059733683700002,0.73809558705
7676, HUDBOY , CC(C=CC1=CC=CO1)=NNc1ccccc1N(=O)=O , P-1 ,1,1,1.38637061457,0.693401746332
7677, RITKUC , Cc1c(cccc1N(=O)=O)C(=O)Oc1ccc(C=O)cc1N(=O)=O , P21/c ,1,0,1.6203512729799998,0.763966420474
7680, TEVSET01 , CN1N(c2ccccc2)C(=O)C(=C1C)N=Cc1cc(ccc1O)N(=O)=O , P21/n ,0,0,1.37605340018,0.6756089955239999
7681, BUFBOU , CC(=O)C1=C(C)NC2=C(C1c1cccc(c1)N(=O)=O)C(=O)CCC2 , P21/n ,0,0,1.35251877772,0.7482143190170001
7682, UFEQIG , CON=C1C(CC2CC1C2(C)C)CC(O)=O , P212121 ,0,0,1.21636292486,0.6702049595139999
7683, GUSWIA , CC1OCc2cnc(C)c(OC(=O)c3ccc(cc3)N(=O)=O)c2CO1 , P-1 ,1,1,1.4138500745299998,0.6930220713070001
7684, BATWUO , [O-][N+](=[N+]([O-])c1cnc2ccccc2n1)c1cnc2ccccc2n1 , P21/c ,1,0,1.44839458282,0.6852979740299999
7685, PUBMUU19 , O=N(=O)N1C2C3N(C4C1N(C(C(N2N(=O)=O)N3N(=O)=O)N4N(=O)=O)N(=O)=O)N(=O)=O , P21/n ,0,0,2.03940705023,0.762020584906
7687, PONJAF , COc1ccc(cc1)C1C(c2ccc(cc2)N(=O)=O)C(=Cc2ccc(OC)cc12)c1ccc(cc1)N(=O)=O , C2/c ,1,0,1.36887242448,0.6925039872409999
7688, DOKVUV01 , CCOC(=O)c1ccc(Nc2ccccc2)c(c1)N(=O)=O , P21/c ,1,0,1.40962428421,0.704074074074
7689, HAXWAE , CC1=CC(C)(N(=O)=O)C(C)(N(=O)=O)C(C)(C1=O)N(=O)=O , P21/c ,1,0,1.55819067409,0.736434393577
7690, KEZVES , O=N(=O)c1cccc(c1)C1=CC2=C(O1)C(CC2c1ccccc1)(c1ccccc1)c1ccccc1 , P-1 ,1,1,1.11341094151,0.569114877589
7691, LERWOX , CCCC1=CC(=O)C(O)(CC(=O)OC)N1Nc1ccc(cc1N(=O)=O)N(=O)=O , P21/c ,1,0,1.46395460114,0.69738671822
7693, FINBIP , CC(N(=O)=O)(N(=O)=O)N(=O)=O , I-43d ,0,0,1.7371898203099998,0.712281855292
7694, XAYRIY , CC1(C)OC2OC(CN=[N+]=[N-])C(OC(=O)c3ccc(cc3)N(=O)=O)C2O1 , P21 ,0,0,1.39736609936,0.659225429302
7695, PABHAB , CC1=Nc2c(cc(cc2N(=O)=O)N(=O)=O)N1c1c(cc(cc1N(=O)=O)N(=O)=O)N(=O)=O , P21/c ,1,0,1.65746476007,0.700365371259
7696, SARXOA , CCCCCC(NN1C(=O)c2ccccc2C1=O)C(OC(=O)c1ccc(cc1)N(=O)=O)C1N(C(=O)OCC1(C)C)C(=O)c1ccc(cc1)N(=O)=O , P-1 ,1,1,1.4247566201700002,0.7043701352349999
7697, NABMUY , CC(CN(CC(C)(N(=O)=O)N(=O)=O)N(=O)=O)(N(=O)=O)N(=O)=O , C2/c ,1,1,1.7416598034900002,0.7389948871430001
7698, NUPNES , O=C(NN=CC=Cc1ccccc1)c1ccc(cc1)N(=O)=O , P21/c ,1,1,1.43860756604,0.7338501291990001
7699, KAVRUU , CC1(CC(C=N1[O])c1ccccc1)c1ccccc1 , R-3 ,1,0,1.21988652685,0.683708510752
7701, FENZUW , CN1CC2=C(C1)C(=C(C1=CC=CN1Cc1ccccc1)C1=NON=C21)N(=O)=O , P21/c ,1,0,1.4070326768099999,0.701505107359
7702, KOFHUJ , NC(=NO)c1ccccc1 , P21/c ,1,0,1.3043631564899998,0.677855477855
7704, NTRANT01 , O=N(=O)c1c2ccccc2cc2ccccc12 , P21/c ,1,1,1.4403966757100002,0.729934575618
7705, ATAVAT , O=C(OC(C1OC(CC2CCCCC12)c1ccccc1)c1ccccc1)c1ccc(cc1)N(=O)=O , Ia ,0,0,1.29927214148,0.690542207792
7706, KOMWEQ , O=C1Nc2ccccc2C1=Cc1ccc(cc1)N(=O)=O , P21/c ,1,0,1.44796451087,0.714358024691
7708, BOYTIT , CCCCCCCCOc1ccc(cc1)C(=O)Oc1ccc(OC(=O)c2ccc(NN=N([O])c3ccccc3)cc2)cc1 , P-1 ,1,1,1.2974100377200002,0.686709435176
7709, AYASIC , COC(=O)C(c1ccccc1)=C(C(=O)c1ccc(cc1)N(=O)=O)c1cccc(C)n1 , P-1 ,1,1,1.32221308056,0.670068027211
7710, CEHFUS , Cc1ccc(cc1)N(OC(=O)Cc1ccccc1N(=O)=O)C(=O)c1ccccc1 , P212121 ,0,0,1.3136892333299999,0.659479905437
7711, MNPHOL24 , Oc1cccc(c1)N(=O)=O , P212121 ,0,0,1.5054624752899999,0.715937979813
7712, TAYVUK , CC(N1OCC2COc3ccc4ccccc4c3C12)c1ccccc1 , P212121 ,0,0,1.2599139352700002,0.683560349092
7713, NIZCEE , O=N(=O)c1ccc(Cc2ccc3ccc4cccnc4c3n2)c(c1)N(=O)=O , C2/c ,1,0,1.51796533155,0.7209764872810001
7714, REFXUV , CC1(C)N([O])C(=N([O])C1(C)C)C1=Nc2ccccc2N1 , Pbca ,1,0,1.3287559865,0.685851277435
7715, EVAGIS , O=C(c1ccccc1)C(=NNc1ccc(cc1)N(=O)=O)C(=O)c1ccccc1 , P212121 ,0,0,1.3847757380799999,0.698253796468
7716, RIGJOI , CCOC(=O)C12CCC(C)(O)C(C1)C(=O)C=C2c1ccc(cc1)N(=O)=O , P21/n ,0,0,1.32157720868,0.6694546443630001
7717, DIZREL , Cc1ccc(cc1)C1=C(N(C(=O)c2ccccc12)c1cccc2cccnc12)c1ccc(cc1)N(=O)=O , P21/n ,0,1,1.32020440311,0.6677525440559999
7718, TIFSAC , O=C(OCc1ccc(cc1)N(=O)=O)c1cncc(c1)C(=O)OCc1ccc(cc1)N(=O)=O , P21212 ,0,0,1.5616961595200003,0.744232026144
7720, HAVWEH , CC(C)(O)C(=O)C1CON(C1c1ccccc1)c1ccccc1 , P212121 ,0,0,1.30766767753,0.713566460966
7722, NOFBEP , CNC(NC)=C(C=C1C(=O)CC(C)(C)CC1=O)N(=O)=O , P-1 ,1,1,1.33282905325,0.675232411805
7723, ZUDGOU , COC1=CC(C(=CC1C(N(=O)=O)(N(=O)=O)N(=O)=O)C)N(=O)=O , P212121 ,0,0,1.62893990546,0.728171145001
7724, LAGPIT , CC(C=O)=CC(C)=CC(C)=Cc1ccc(cc1)N(=O)=O , P21/a ,0,0,1.2593137754200001,0.7010660326710001
7725, AFAZUD , O=N(=O)C12CC3CC1CC3(C2)N(=O)=O , Fdd2 ,0,0,1.4605175187200001,0.691769865841
7728, ABULIT , COc1cccc(C=NO)c1O , Pbca ,1,0,1.36393424785,0.6963870120119999
7729, JAWCAM , CCOC(=O)C1(CC2ON=C(C2C1)C(O)=O)NC(=O)OC(C)(C)C , Cc ,0,0,1.2707178346999999,0.648386408264
7730, PUJPEQ , COC(=O)c1cc[n+]([O-])cc1 , P21/c ,1,1,1.42019816252,0.7047401247399999
7731, DUJBUG01 , Oc1ccc(cc1C=O)N(=O)=O , P21/n ,0,1,1.59224831064,0.74146841308