ID,name,smiles,space_group,inversion_symmetry,beta_packing,density,packing_coefficient
5602, YULTUV , CCOC(=O)C1=C(O)C2CCCC2C(C=O)C1c1ccc(cc1)N(=O)=O , P21 ,0,0,1.34610594155,0.6911434007960001
5603, NTBZAM10 , NC(=O)c1ccc(cc1)N(=O)=O , P21/c ,1,0,1.5414679474000001,0.73255763844
5604, EIMTNB , O=N(=O)c1cc(c(N2CC2)c(c1)N(=O)=O)N(=O)=O , P21/c ,1,1,1.6637462923500002,0.72332667635
5605, YOTJAU , CC(C)(C)OC(=O)N1CCC2CC3(C1)N(O2)c1ccccc1C3=O , C2/c ,1,0,1.28025539875,0.662729346349
5606, MBZPNA12 , Cc1ccc(cc1)C=Nc1ccc(cc1)N(=O)=O , P21/c ,1,0,1.32352566172,0.705907830908
5607, TEHKEW , CCN1OC(=O)C=C1c1cccnc1 , P21/n ,0,0,1.4099412692,0.7333192418800001
5612, LABLOP , CN1C=NC(=C1NCc1ccccc1)N(=O)=O , Pbca ,1,0,1.4024029261700002,0.708002520479
5613, WUYLUZ , CCCN1Cc2cc(ccc2C(=C1N)C#N)N(=O)=O , P21/c ,1,1,1.3793378422799998,0.702455590387
5614, QIYYOO , Cc1cc(C)c(N=Cc2ccc(cc2)N(=O)=O)c(C)c1N=Cc1ccc(cc1)N(=O)=O , P21/c ,1,0,1.33696862927,0.6772995963089999
5615, KOTXAS , CC(C)=C1C(CCC1ON1C(C)(C)c2ccccc2C1(C)C)ON1C(C)(C)c2ccccc2C1(C)C , Pbcn ,1,1,1.11610307206,0.6444779914190001
5617, WEYZUX , COC(=O)C1=NOC2C1C(=O)N(C)C2=O , Pbca ,1,0,1.53968541063,0.7108377597609999
5618, LEVNUW , O=N(=O)c1ccc(NCc2ccncc2)cc1 , Pbca ,1,0,1.40053074822,0.7109253696690001
5619, DIDNUA , O=N(=O)c1cccc(c1)c1ccccc1c1cccc(c1)N(=O)=O , C2/c ,1,1,1.4161466714200002,0.696108058608
5620, IQUWOH , Oc1cc(ccc1NC1=C(Oc2ccccc12)N=Cc1ccccc1O)N(=O)=O , C2/c ,1,0,1.44246430524,0.693283234267
5621, ZITKAQ , NC(=O)N1OCCc2ccccc12 , P21/n ,0,1,1.4211233726299999,0.72024160913
5622, SENZUH , CC(C)(C)c1cc(NC(=O)c2ccc(cc2)N(=O)=O)cc(c1O)C(C)(C)C , Pc ,0,0,1.20099621574,0.653277972028
5623, PNOIZB , O=N(=O)C1=CC=CN2C=C(C=C12)c1ccccc1 , Pca21 ,0,0,1.4065820679499998,0.7235088440970001
5624, UGIXUF , Oc1ccc(c(C=O)c1)N(=O)=O , P21/c ,1,0,1.5740383355,0.718492935636
5625, EROVOX , CC1=NN(c2ccccc2)C2=C1C(c1cccc(c1)N(=O)=O)C(=C(N)O2)C#N , P21/c ,1,0,1.40988766975,0.690076403696
5626, MBZFZO , CC1=CC2=NO[N+](=C2C=C1)[O-] , P21/c ,1,0,1.4412560681400002,0.686111831302
5627, ZAYRIA , CC(=O)Nc1c(O)cc(cc1N(=O)=O)C(O)=O , P-1 ,1,1,1.5957534804799998,0.715183019277
5629, BACXEI10 , CC(=O)NC(CC1=C(N=CN1)N(=O)=O)C(O)=O , P212121 ,0,0,1.56694465811,0.6998056365399999
5630, VUNFEP , OC(CC(=O)c1ccccc1)C1=NOC2CCCC12 , P-1 ,1,0,1.33441373409,0.698815343286
5631, FOJLIZ , CC1(C)OC2C(=NO)C(O)COC2(CO)O1 , P212121 ,0,0,1.44686894643,0.706842105263
5632, XEHHUN , CC(=O)C(=NNc1ccc(cc1)N(=O)=O)C(=O)Nc1ccccc1C , P21/n ,0,0,1.4014155402700001,0.7048799976890001
5633, GAHCOJ , CC(C)CC1CC2(ON1C1OC(C3COC(C)(C)O3)C3OC(C)(C)OC13)OC1(CCCCC1)OC2=O , P21 ,0,0,1.26717914201,0.660510157424
5634, WIWLUJ , CCOC(=O)COc1c2Cc3cc(cc(Cc4cccc(Cc5cccc(Cc1ccc2)c5OCC(=O)OCC)c4OCC(=O)OCC)c3O)N(=O)=O , P21/n ,0,1,1.30027721816,0.657595846275
5635, ZUKYUZ , CCOC(=O)C1(CC2COC(N2C1=O)c1ccccc1)Cc1ccc(cc1)N(=O)=O , C2/c ,1,0,1.36548882889,0.6907385913519999
5637, DATFOW , C=CC1CC(C#N)(C#N)C2c3ccccc3N(C(=O)c3ccccc3)C12N(=O)=O , Pbca ,1,0,1.34728214253,0.67992211762
5638, IPEZEJ , CCCCCCCCCCCCCCCCCCOc1ccccc1N1C=C(N=N1)c1cc(cc(n1)C1=CN(N=N1)c1ccccc1OCCCCCCCCCCCCCCCCCC)N(=O)=O , C2/c ,1,1,1.17910177736,0.688069830878
5639, WOBJAY , CN(C)c1ccc(C=CC=Nc2cccc(c2)N(=O)=O)cc1 , P-1 ,1,1,1.29923922426,0.68800534085
5641, FIHMOZ , COC(=O)c1ccc(c(c1)N(=O)=O)N(=O)=O , P-1 ,1,1,1.64180771085,0.733988095238
5642, DIXLIF , CC1(C)CC(=NO)C(C)(C)C(C1)=NO , P-1 ,1,1,1.15107020184,0.6629256375020001
5643, OFUDAX , O=C1CN(NC(=O)c2ccc(cc2)N(=O)=O)C(=O)CN1NC(=O)c1ccccc1 , P21/n ,0,0,1.45449752558,0.681957264957
5644, OWUXEK , CC(=O)C1CC(=CCCCOC1=O)c1ccc(cc1)N(=O)=O , P-1 ,1,1,1.37343910891,0.702926062279
5645, RESKIJ , CC1(C)C(N(N=O)C2CCCCC2C1=O)c1ccccc1 , P21/a ,0,0,1.2521930100399998,0.681707970203
5646, HIFSUL , O=NC1(COCOC1)OC(=O)c1ccccc1 , P212121 ,0,0,1.4553941470700003,0.710835621139
5647, FUFSIK , CCOC1=NC(=NN1C)N(=O)=O , P-1 ,1,1,1.5074207686,0.714055210635
5648, HAKZAV , COc1cccc(C=NC2CC(C)(C)N([O])C(C)(C)C2)c1O , P21/a ,0,0,1.2001096230700001,0.66044575725
5649, GILHOZ , [O]N(C12CC3CC(CC(C3)C1)C2)C12CC3CC(CC(C3)C1)C2 , Pnma ,1,1,1.24299884262,0.700655328444
5650, OJAZEF , CCOC1CC23C=CC(=O)CC2C(=Cc2ccc(OC)c(O1)c32)N(=O)=O , P21/c ,1,1,1.37491811521,0.6806478405320001
5651, TIXQUM01 , Cc1ccc(cc1N)N(=O)=O , P21/n ,0,0,1.42422840993,0.743006915995
5652, YALBOD , CC(=O)OC1CC2COC(CN(=O)=O)C2=CC1OC(C)=O , P21/n ,0,0,1.3750193174899998,0.674481628537
5654, LESGIB , CCOc1cccc2c1OCC1(C(ON=C21)c1ccccc1)C(=O)OC , P21/c ,1,0,1.33084641996,0.670617624257
5656, ERUMAH , CC(C)(Oc1nc(cc2ccccc12)c1ccccc1)C(=O)NOCc1ccccc1 , C2/c ,1,0,1.2160258745799999,0.640553557489
5657, CILSUL , O=NN1CCCC2CCCN(N=O)C12 , P21/c ,1,0,1.35361623764,0.61365914787
5658, PXZNOD , CCOC(=O)N1C2ON(C1C=CC=C2)c1ccccc1 , Cc ,0,0,1.26501926145,0.6802511161310001
5659, ABITOX , CCOC(=O)C(C1C(CN(CC2CCCCC2)C1=O)C(ON1N=Nc2ccccc12)c1cccc(c1)N(=O)=O)C(=O)OCC , P-1 ,1,1,1.35529233995,0.698834423538
5660, ACALUL , CC(C)(C)c1ccc(cc1)C(=O)Nc1ccc(cc1)N(=O)=O , P-1 ,1,1,1.3150619599700002,0.6912613858169999
5661, CUZXAX , COC1OC2CC1C(C2)N(=O)=O , P212121 ,0,0,1.445890211,0.716805425266
5663, EJOYAD , COC(=O)N1OC1c1ccccc1 , P21/c ,1,0,1.32839829605,0.677593954248
5664, SAHCOW , COC(=O)CC1(C=CC(CC(=O)OC)(N1[O])C(=O)OC)C(=O)OC , C2/c ,1,1,1.4078832488100002,0.693283681089
5666, WITTEA , O=C(Nc1cccc[n+]1[O-])c1c(Oc2ccccc2)cccc1Oc1ccccc1 , P-1 ,1,1,1.338818785,0.677850107358
5667, TEJPED , CC(C)N(Cc1ccccc1O)OC(C)=O , P-1 ,1,1,1.1639858883299998,0.629458450047
5668, XURHEY , CC12CCC(=O)CC1CCCCC2OC(=O)c1cc(cc(c1)N(=O)=O)N(=O)=O , P21/c ,1,0,1.3944191411000002,0.6941543513959999
5669, MOVREU , CC(C)(C)N([O])c1ccc(cc1)C(O)=O , P21/n ,0,0,1.25370017775,0.666022021457
5670, EKEMIQ , COc1cc(O)c(c(OC)c1)C1=C2C=CC=CC2=NO1 , P212121 ,0,0,1.35030665878,0.669660638082
5672, XUSTIQ , CCCC1OC(=NOC)c2ccccc2C1OC(C)=O , P21/c ,1,1,1.2133451145999998,0.641366660169
5673, FAVCUC , CC(=NNc1cccc(c1)N(=O)=O)c1ccccc1N , P21/n ,0,0,1.40320772451,0.718075362319
5674, RIPNEJ , CC1CC2(CCCCC2=NNc2ccc(cc2N(=O)=O)N(=O)=O)OC1C , Aba2 ,0,0,1.37594045075,0.693341373848
5675, LAHVIB , COC(=O)c1ccc(N2N=C(C=C2N)C(C)(C)C)c(c1)N(=O)=O , P21/c ,1,0,1.619217492,0.7316166095550001
5677, GUHCOC , COc1ccc(cc1)N=NC(=NNc1ccccc1)c1ccc(cc1)N(=O)=O , Pbca ,1,0,1.37435770121,0.6987149659720001
5678, NOYGIR , COc1cc(c(OC)c2ccccc12)C(N(=O)=O)(N(=O)=O)N(=O)=O , P-1 ,1,1,1.6434162886,0.7512387387389999
5679, WIDJAX , COc1ccc(cc1)C1C(COc2ccc3ccccc3c12)N(=O)=O , P212121 ,0,0,1.3882051024700002,0.7098844672660001
5680, TIBHES , COC(=O)C=C(N1C=NC(=C1)N(=O)=O)C(=O)OC , P-1 ,1,1,1.5965326679799998,0.7376144764429999
5681, BETWAY , O=N(=O)c1ccc(cc1)C1NC2CCCCC2CO1 , P21/c ,1,0,1.31823410875,0.711702563554
5682, WIGXAN , OC1=CC=CC=C(C1=O)N(=O)=O , P21/c ,1,0,1.5277168770200003,0.708237686446
5683, LABMEJ , O=N(=O)c1ccc(cc1)C=Cc1nc2CCc3ccccc3c2c2CCc3ccccc3c12 , P21/c ,1,0,1.33221976345,0.690576756303
5684, XELYOE , CC(C)(C)C1=CC(ON2C=NC(C)(C)C2(C)C)C(=C(OC1=O)C1=[N+]([O-])C(C)(C)C(C)(C)N1[O])C(C)(C)C , P21/c ,1,0,1.12766914785,0.629372087818
5685, MEJLUL , CC(=O)C1(CC2CCC1C=C2)OC(=O)c1ccc(cc1)N(=O)=O , P21/n ,0,1,1.32585135885,0.665867790868
5686, DELQIV , O=N(=O)c1ccc(OCCOc2ccc(cc2)N(=O)=O)cc1 , P21/n ,0,0,1.4711438388,0.7152897044200001
5687, RUWJEY , COC(=O)CCC(NC(c1ccccc1)(c1ccccc1)c1ccccc1)C(=O)[N+]1=NN([O-])c2ccccc12 , P212121 ,0,0,1.3044654512,0.672643754983
5689, LALYEC , CCC1(C(=O)c2ccccc2C1=O)N(=O)=O , P21/c ,1,0,1.3855989312299999,0.6813618306579999
5690, DAPJEK , O=C(OC(C1CC1)C1CC1)c1ccc(cc1N(=O)=O)N(=O)=O , P21/n ,0,0,1.43061608417,0.705095852895
5692, DAVKET , CCN1C(=CC(C=C1C)=C(C#N)c1ccc(cc1)N(=O)=O)C , P21/c ,1,1,1.2809744585,0.677416740945
5693, NIRJII03 , CC(C)(C)c1cccc(C=NO)c1O , I2/a ,0,0,1.3620445858599999,0.750139781655
5695, XOTDEQ , CC1=C(C)C2(C)CC1(C)C1C2C(=O)N(O)C1=O , P21/c ,1,0,1.2299056577,0.649443570897
5696, BABKIY , [O-][n+]1ccccc1C=C1CCN=C1 , P21/n ,0,0,1.3482803108599999,0.714600748756
5698, EKAHEF , CC1(C)C2CC3C(=NOC3(C)C1C2)c1ccc(cc1)N(=O)=O , P212121 ,0,0,1.2934689183499999,0.679346073214
5699, VOFDIF , Oc1ccc(CCNC(=O)Nc2ccc(cc2)N(=O)=O)cc1 , P212121 ,0,0,1.3947052936200002,0.6867689885870001
5700, XOJCOO , CC1(C)CC2(CC3CC3C32CC13)OC(=O)c1ccc(cc1)N(=O)=O , P21/a ,0,0,1.31004582055,0.6948006570649999
5701, ARAHAD , COc1ccc(cc1)C#CC1(CC(ON(C1c1ccccc1)c1ccccc1)c1ccc(OC)cc1)C(C)=O , P21 ,0,0,1.25334709704,0.67700249199
5702, PIJSAF , O=C1CCN2C(C(CN12)c1ccccc1N(=O)=O)c1ccccc1 , P212121 ,0,0,1.38457927634,0.7041953409270001
5705, LEGHUC , CC1=NOC(=C1C#N)N , P21/n ,0,0,1.38835661158,0.6828571428569999
5706, XAZQAR , O=N(=O)c1ccc2CCCNc2c1 , Pbca ,1,0,1.41542453377,0.717133600152
5708, CANBAV , COC(=O)C(=CN(C)C)c1ccccc1OC(=CN(C)C)C1=NC(=NO1)c1ccccc1C , P-1 ,1,1,1.2436825544499999,0.658751493429
5709, IYIGEE , COC(=O)C1=C(C)NC2=C(C1c1ccc(cc1)N(=O)=O)C(=O)CC(C)(C)C2 , P-421c ,0,0,1.29965362123,0.6741522903030001
5710, SUHPUI , O=N(=O)c1ccc(NN=CC2C3CCC4CC3C=CC24)c(c1)N(=O)=O , P21/c ,1,0,1.4424217417200003,0.707019605133
5712, XEGTOS , CCOC(=O)C(Cc1ccccc1)(Cc1ccccc1)N(=O)=O , P21/c ,1,0,1.2920064118899999,0.6889755405879999
5713, XOWMAY , O=C(CN=Cc1cccc[n+]1[O-])c1ccccc1 , P21/n ,0,0,1.3686007578600001,0.7012325411720001
5714, DAWPEW , CC(C)(C)C1=CC(O)(C(=O)C(C)(C1N(=O)=O)N(=O)=O)C(C)(C)C , P21/n ,0,0,1.27994634967,0.668297582191
5716, ROGTOY , COC1OC2COC(C)OC2C(ON(=O)=O)C1ON(=O)=O , P212121 ,0,0,1.59765941972,0.7182524388779999
5717, EHECEZ , CC(=O)OC1CCC(CC1)(OC(=O)c1ccc(cc1)N(=O)=O)C#N , P21/c ,1,0,1.36720123417,0.678284411513
5718, IVEWIQ , Cc1ccc(cc1)C(=O)C1(O)ON=C2C(OCc3ccccc3)C(OCc3ccccc3)C(COCc3ccccc3)OC12 , P21 ,0,0,1.30514911629,0.696628985036
5719, MNPYDO23 , Cc1cn([O])ccc1N(=O)=O , P212121 ,0,0,1.5691077859399998,0.746555594943
5720, VAWFEE , ON(c1ccccc1)C1(CC(=O)N(O1)c1ccccc1)c1ccccc1 , P21/n ,0,0,1.32754880137,0.683172133445
5721, SAGVIH , CCc1ccc2OC(=C(C(CN(=O)=O)c2c1)N(=O)=O)NC , P-1 ,1,0,1.3879344341600002,0.7232839624140001
5722, PUTCEM , O=N(=O)c1cc2N3[N-]c4c(cc(cc4N(=O)=O)N(=O)=O)[N+]3=Nc2c(c1)N(=O)=O , Pbca ,1,0,1.8297643945200002,0.746324512163
5723, TAHYEH , O=C(NCc1ccccc1)c1ccc(cc1)N(=O)=O , P21/c ,1,0,1.3959776690399999,0.716290726817
5724, ZACCOV , COC(=O)C12N=NC(C)(C)C1CC=CC2OC(=O)c1cc(cc(c1)N(=O)=O)N(=O)=O , P21/n ,0,0,1.43671662145,0.704175049517
5725, ADOLEK , O=N(=O)c1ccc(NN=C2CCCCCCC2)c(c1)N(=O)=O , P21/n ,0,1,1.3935400390000001,0.711935046505
5726, EVOPIP , ONC(=O)c1ccncc1 , P21/c ,1,0,1.46789038514,0.707154861945
5727, XINBIH , CN1C=C(c2ccccc12)C1=[N+]([O-])C(C)(C)N=C1c1ccccc1 , P21/c ,1,1,1.25300686392,0.669886136273
5729, QANTAD , CC1(C)C(COC(=O)c2cc(cc(c2)N(=O)=O)N(=O)=O)C(Nc2ccccc2)C(ON1c1ccccc1)c1ccccc1 , P21/n ,0,0,1.3151302246799998,0.6701239617679999
5730, TEXRET , O=C(OC1C2CON=C2C(OC(=O)c2ccccc2)C1OC(=O)c1ccccc1)c1ccccc1 , P212121 ,0,0,1.33040430404,0.656254165001
5731, PEMLUP , COc1ccc2NC=C(C(c3cccc(c3)N(=O)=O)C3=CNc4ccc(OC)cc34)c2c1 , P21/c ,1,1,1.3554014109,0.6859137338860001
5732, RAGJOY , None , P21 ,0,1,1.18168533002,0.649560286364
5733, BOYCOI , COC(=O)C1=C(C)NC(=C(C1c1cccc(c1)N(=O)=O)C(C)=O)C , P21/c ,1,0,1.36443706616,0.695112781955
5734, LEBGAA02 , CC(C)(C)OC(=O)CCC(CCC(=O)OC(C)(C)C)(CCC(=O)OC(C)(C)C)N(=O)=O , Pbca ,1,0,1.1567450401700001,0.646821947836
5735, YABMAQ , CC1CC23Nc4ccccc4CN2C(=O)CC3C1CN(=O)=O , P21 ,0,0,1.3499592935,0.694514455152
5737, HAGMIM , O=C1CCCCCC1C1CCCC1OC(=O)c1cc(cc(c1)N(=O)=O)N(=O)=O , Pna21 ,0,0,1.38678175412,0.690690350214
5738, VEGHEU , O=C1CN(C(=O)CN1N(=O)=O)N(=O)=O , C2cb ,0,1,1.8384178955200001,0.7555250514759999
5739, HEZQOU , ON=C1CC2(OCCO2)C2CCN(CCCCC=C)CC32CC2C=CCCCCN2C13 , P212121 ,0,0,1.1907733442100001,0.661201989138
5740, FOLNUQ , CCOC(=O)C1=C(C)NC(=C(C1C1=CN(N=C1C(=O)OC)c1ccc(cc1)N(=O)=O)C(=O)OCC)C , Pca21 ,0,0,1.3338458609200001,0.663077651515
5742, DARGEJ , Cc1cccc(C)c1Oc1c(cc(cc1N(=O)=O)N(=O)=O)N(=O)=O , P-1 ,1,1,1.5243975145,0.715249266862
5743, OZAZEV , COCc1c(C#N)c(NN)nc(C)c1N(=O)=O , P21/c ,1,0,1.44580929349,0.710233029382
5744, NETMAC , CC(C)(C)C1CCC(CC1)=NOC(=O)c1ccccc1N(=O)=O , P21/n ,0,1,1.2530320683,0.666412277355
5745, VOPXAZ02 , COc1ccc(cc1)C=CN(=O)=O , P-1 ,1,1,1.3984309254700003,0.729158676476
5746, YAHRUW , CC(=NNc1ccc(cc1N(=O)=O)N(=O)=O)c1ccccc1N(=O)=O , P21/c ,1,0,1.57442042178,0.7288862652500001
5747, LAPVOP , O=N(=O)c1ccc(cc1)C1=NN=C(O1)C12CC3CC(CC(C3)C1)C2 , P21/m ,0,1,1.3730185367399999,0.694741962158
5748, WIDCOB , CC1(CC2CC1C(O)(C2)c1ccccc1)N(=O)=O , P212121 ,0,0,1.31195957067,0.627450980392
5749, IFIJAL , CC1CCN(Cc2ccc(cc2)N(=O)=O)C2OC3=C(C(C12)c1ccc(cc1)N(=O)=O)C(=O)CC(C)(C)C3 , P-1 ,1,1,1.27991249392,0.654244779759
5750, MACINA10 , CN(C)c1ccc(C=CC(O)=O)cc1N(=O)=O , P21/c ,1,0,1.38996501958,0.6948424462010001
5753, WIGTOX , CC(=O)CN1C(=NC=C1N(=O)=O)C , P21/n ,0,0,1.4006201785899999,0.68664874552
5755, MEDXOL , CC(C)C1=NOC(=O)C1=Cc1ccc2ccccc2c1 , P21/c ,1,1,1.28266075774,0.678678678679
5756, NUPJIR , CN(C)c1cccc2c(ccc(N(C)C)c12)c1c(cc(cc1N(=O)=O)N(=O)=O)N(=O)=O , P21/n ,0,0,1.4236218552000002,0.697412008282
5758, JAYZAL , CCOC(=O)C1=NOC2CC(CC12)(NC(=O)OC(C)(C)C)C(=O)OCC , P212121 ,0,0,1.26936496149,0.656647394133
5759, FASXAA , CON=Cc1ccccc1OCCOc1ccccc1C=NOC , P21/c ,1,0,1.26235186405,0.661209246345
5760, DUDZIL04 , Nc1ccc(cc1C(=O)c1ccccc1)N(=O)=O , P21/c ,1,0,1.4476506536200002,0.720633370536
5761, PEZPAN , CCCCCCCC1=NNC2=NC(=NN12)c1ccc(cc1)N(=O)=O , P21/c ,1,0,1.31164167937,0.6770333609039999
5762, VOKPAN , CC1=CC2(C)CCC(OC(=O)c3ccc(cc3)N(=O)=O)C(C)(C)C2CC1 , P21/c ,1,0,1.22417647156,0.666255048152
5764, YIBZEO , CC1=NOC(=C1C(=O)N=N=[N])NC(=O)c1ccccc1 , P-1 ,1,1,1.4705244617,0.6978549446510001
5766, GUZCAG , Cc1ccnc(c1)N1CON(c2ccccc2)C(=Nc2ccccc2)C1=O , P-1 ,1,0,1.3211665938,0.683282754981
5767, VIWTAW , O=N(=O)C1(COC(OC1)c1ccccc1)c1ccc(cc1)C#N , C2/c ,1,0,1.3646702217299997,0.6872024587209999
5770, HOCWEB , O=N(=O)c1ncc(cn1)c1ccccc1 , P-1 ,1,1,1.47838092811,0.732170156198
5772, VIKWER , CC1C(C)C1(N(=O)=O)C1(C(C)C1C)N(=O)=O , Pbcn ,1,1,1.28736161741,0.673539204805
5773, DIFQUF , CC(CO)(C(O)c1ccc(cc1)N(=O)=O)c1ccccc1 , Cc ,0,1,1.3735946729700002,0.7301084530390001
5774, TOMXID , CC(C)CCC(=O)C1C(COC1=O)CN(=O)=O , P212121 ,0,0,1.3292027642200002,0.6954844006569999
5775, AYUGUX , Cc1ccc(cc1)N=Cc1cc(ccc1O)N(=O)=O , P21/c ,1,0,1.37572990039,0.6950505852009999
5777, ACPIXZ , CC(=O)N(C(C)=O)C1=C(c2ccccc2)C(=NO1)c1ccccc1 , P212121 ,0,0,1.30029482724,0.682841029123
5778, REBPAS , O=C(NCC(N(=O)=O)(N(=O)=O)N(=O)=O)NC(=O)NN(=O)=O , P21 ,0,0,1.8439950461099996,0.729552469136
5779, PUGYIA , O=Cc1cc(ccc1N1CCCCC1)N(=O)=O , P-1 ,1,1,1.3616045652700002,0.707546679149
5780, QUBWUH , CNC1=C(C(c2ccc(C)cc2)C2=C(O1)c1ccccc1OC2=O)N(=O)=O , P21/n ,0,0,1.45389643649,0.708264665818
5781, LOHHIB , O=C(CC(CN(=O)=O)c1ccccc1)c1ccccc1 , P-1 ,1,1,1.35056362405,0.7138607167000001
5782, GUMGEB , CC(C)C(O)=C1C(=O)ON=C1c1ccccc1 , Pbca ,1,0,1.27063135418,0.659135979595
5785, DICBUO , CCCC(C(N)c1ccccc1)C1=Nc2ccc(cc2O1)N(=O)=O , P212121 ,0,0,1.29149362139,0.677338566489
5786, IKAKOV , Oc1ccc(C=NNC(=O)c2ccc(cc2)N(=O)=O)c(O)c1 , P21/c ,1,0,1.5515003138299999,0.73798505018
5787, UHULOZ , O=N(=O)c1ccc(cc1)C1=C(N=CN1)c1ccc(cc1)N(=O)=O , Cc ,0,1,1.57258356718,0.7393379169850001
5788, JOBLER , OC(=O)C(CC1=CNOC1=O)NC(=O)c1ccccc1 , P212121 ,0,0,1.47985716804,0.726791101056
5789, BIPJUF , OC(=O)c1ccc(cc1N(=O)=O)N(=O)=O , P21/c ,1,1,1.6733080541,0.721119068287
5790, MFHPYC , CCOC(=O)C1(CC(C(O)N1C=O)c1ccccc1N(=O)=O)C(=O)OCC , P-1 ,1,1,1.3583671959399999,0.683620453924
5793, YERTOF , COc1cccc(C=NC2=C(C)N(C)N(C2=O)c2ccccc2)c1OCCOc1ccc(cc1N(=O)=O)N(=O)=O , P-1 ,1,1,1.4035080167299998,0.685810516219
5794, IMIWOQ , NC(=O)NNC(N)=NN(=O)=O , P21/n ,0,0,1.65036033714,0.692098662207
5795, DUNCAS , COC(=O)C1=C2Nc3ccccc3C32CC2CC4(ON2C3CC14)C(C)=O , P21/c ,1,0,1.3850739108599999,0.693060449986
5796, AXEQEB , CC(C)(C)C1=NOC(=N1)c1ccc(C=O)cc1 , P21/m ,0,1,1.29048583539,0.6846568414599999
5797, WOMREV , CC(C)(C)OC(=O)C(=Cc1ccc(cc1)N(=O)=O)C(=O)CCCO , P21/c ,1,1,1.33512384723,0.704346092504
5798, OMINEF , CON1c2cc(C#N)c(cc2C(=C1c1ccc(C)cc1)CO)C#N , P-1 ,1,1,1.34644419993,0.698559556787
5799, XETKEO , O=N(=O)c1cc(CN2C=CN=N2)cc(c1)N(=O)=O , P21/n ,0,0,1.6278875153999999,0.744612583912
5800, HAWNAV , CC1(C)C2CCC(C2)(C(COCc2ccccc2)OC(=O)c2cc(cc(c2)N(=O)=O)N(=O)=O)C1=C , P-1 ,1,1,1.30700876122,0.6686991869919999
5801, IFOSON , COC(=O)CN1C=C(N=C1C)N(=O)=O , P21/c ,1,0,1.50892617119,0.7238813628899999
5802, SABPOB01 , ON=C(C#N)C(=O)N1CCOCC1 , P212121 ,0,0,1.44355927631,0.7060195346799999
5804, BOTLEC , CCOC(=O)C(=CN(=O)=O)C1=CN(C)c2ccccc12 , P21/n ,0,0,1.35086660948,0.680708304166
5805, HOLHEW , CN1c2ccccc2C(C)(C)C21CC(N(O2)c1ccccc1)c1ccccc1 , Pna21 ,0,0,1.2248624851,0.6779235101819999
5806, KAQNIZ , CC(C)C(CC(=O)N1C(C(C)C)C(OC1=O)(c1ccccc1)c1ccccc1)CN(=O)=O , P21 ,0,0,1.21569370881,0.650130499041
5807, YAMQUA , CCOC(=O)C(CC=C)(C1CC(CCC1=NO)C(C)(C)C)C(=O)OCC , P21/n ,0,0,1.12475002821,0.626775271512
5808, QEFKER , O=N(=O)c1ccc(cc1)C1CC(=Nc2ccccc2N1)c1ccccc1 , P21/c ,1,1,1.3619496998299998,0.696426956128
5810, BEKVOC01 , CC(=O)N(O)c1ccc2c(Cc3ccccc23)c1 , P21 ,0,0,1.3624603169799998,0.703742121849
5811, BUPPOT , CCOC(=O)CC1CN(N(C1Cc1cc2OCOc2cc1N(=O)=O)C(=O)OC(C)(C)C)C(=O)OC(C)(C)C , P212121 ,0,0,1.2144868774,0.615931672068
5812, BENZAV , [O]N1c2ccccc2C2(CCCO2)CC21CCCCC2 , P1121/b ,0,0,1.2396774848899998,0.696917665668
5813, LURVUR , O=C(CCc1ccccc1)Nc1cccc[n+]1[O-] , P21/n ,0,0,1.32996772304,0.6991065399199999
5816, JAQVUV , CCN(c1c(cc(cc1N(=O)=O)N(=O)=O)N(=O)=O)N(=O)=O , P21/c ,1,0,1.66378040154,0.7115009746590001
5818, FESPIF , CCCNC1=C(C(CC(=O)c2ccccc2)c2cc3ccccc3nc2N1c1ccccc1)N(=O)=O , Cc ,0,0,1.27775142431,0.66038711763
5819, USAXOC , None , P21/n ,0,0,1.4272792504499998,0.810161443495
5820, NEDZOO , CCCOC(=O)c1c2cc(ccc2nc(C)c1C(=O)OCC)N(=O)=O , P-1 ,1,1,1.3302740985600001,0.662821291237
5821, QIDGIW , O=N(=O)c1cccc(c1)c1c2ccccc2cc2ccccc12 , P21/n ,0,0,1.40473905828,0.724947509067
5823, NIPZOC , Cc1nc(C(=O)ON2N=Nc3ccccc23)c(c2ccccc2)c1c1ccccc1 , P21/c ,1,0,1.32195623457,0.6767062660140001
5824, POBGUJ , CC12CC3CC(C1)(C#N)C(=NNc1ccc(cc1N(=O)=O)N(=O)=O)C3O2 , Cc ,0,0,1.4537163454799997,0.688431487616
5825, POBKAU , CC(C)(C)C(=O)NC1CC(C)(C)N([O])C(C)(C)C1 , Pbca ,1,0,1.00989756684,0.6459099941550001
5826, YAWNAL , O=C(OC1CCCC21CCCC2OC(=O)c1ccc(cc1)N(=O)=O)c1ccc(cc1)N(=O)=O , Pccn ,1,1,1.38397224465,0.6714181286550001
5827, YUYNUC , CC(=O)C(=NNc1ccc(cc1N(=O)=O)N(=O)=O)C(C)=O , P21/c ,1,0,1.55648218292,0.723681699246
5828, CEDMUV , O=N(=O)c1ccc(CC2=NN=NN2)cc1 , P21/c ,1,0,1.54477079303,0.722068965517
5829, IQUSAQ , COC(=O)Cc1ccc(cc1)N(=O)=O , Pn21a ,0,0,1.41064570954,0.697326248313
5831, JADNOS , CC1=N([O])C(C)(C)C(C)(C)N1[O] , Pbca ,1,0,1.1648369516600001,0.642327538303
5832, NANYIL , CC(C(O)C1CC1c1ccccc1N(=O)=O)C(=O)N1C(Cc2ccccc2)C(C)(C)OC1=O , P212121 ,0,0,1.28714801507,0.674619533649
5833, YUCRUK , Cc1ccc(cc1)C1CC2Cc3cc(C)ccc3N1O2 , P21/n ,0,0,1.29486330094,0.714863509506
5834, VITTOJ , COC(=O)C12COc3ccccc3C1N(OC2c1ccc(C)cc1)c1ccccc1 , P21/n ,0,1,1.3103178783,0.677671076967
5836, ZATMUC , Cc1cccc2c1C(O)C1C(N(=O)OC2(C)C1N(=O)=O)N(=O)=O , Pbca ,1,0,1.62052636804,0.743238966063
5837, QECWEA , CCC(CC)(OC)C1CCCN1N1CC(OC(=O)c2ccc(cc2)N(=O)=O)C1=O , P212121 ,0,0,1.27023942264,0.6608042994810001
5838, AHUHEQ , CCCCCCCCCCCCCCCCCCNc1ccc(cc1N(=O)=O)N(=O)=O , C2/c ,1,0,1.14325458326,0.651081402258
5839, PEHXEG , ON=CC1=CN=CN1Cc1ccccc1 , P212121 ,0,0,1.30707786325,0.685654056089
5840, ALEDIF , COc1cc2OC(=O)C(C)(CC=C)C(c3ccc(cc3)N(=O)=O)c2c(OC)c1OC , P21/c ,1,1,1.3831825001,0.7084185385799999
5841, YINFAD , CC1=CC(=NO1)N=Cc1cc(cc(c1O)C(C)(C)C)C(C)(C)C , P21/n ,0,0,1.1706043644700002,0.661023470566
5842, YAHMUR , COc1ccc(OC)c(c1)C(=O)C=Cc1cccc(c1)N(=O)=O , P-1 ,1,1,1.36736723903,0.6897093479970001
5843, DADQIJ , CN(C)c1ccc(cc1)C=NNc1ccc(cc1N(=O)=O)N(=O)=O , C2/c ,1,0,1.4285791842299997,0.701276812946
5844, AJITOC , CC1=C(N=CN1)C1=N([O])C(C)(C)C(C)(C)N1[O] , P21/n ,0,1,1.2872925052700002,0.6750084466349999
5845, QIMGAU01 , OC1=CC=C(C=CC1=O)N(=O)=O , P21/n ,0,0,1.6597711673299997,0.767263483643