ID,name,smiles,space_group,inversion_symmetry,beta_packing,density,packing_coefficient
8894, MOPQUD , Nc1nc(NCC=C)c(N=O)c(OCc2ccccc2)n1 , P21/c ,1,0,1.35096902262,0.690494430411
8895, RIWROE , Oc1ccc(cc1)C=[N+]([O-])c1ccccc1 , Pbca ,1,0,1.2487274855500001,0.647928597224
8896, TIWXON , COc1ccc(cc1)C1C2C34Cc5cc(cc(CC6=CC7(ON(C(C7C7(Cc8cc(cc(CC(=CC2(ON1c1ccccc1)C(C)(C)C)C3=O)c8O7)C(C)(C)C)C6=O)c1ccc(OC)cc1)c1ccccc1)C(C)(C)C)c5O4)C(C)(C)C , P-1 ,1,1,1.16314621937,0.625415384615
8897, BEMWEV , O=N(=O)c1ccc(NN=C2CCCCCCCC=CCCCCCCC2)c(c1)N(=O)=O , P-1 ,1,1,1.25257261683,0.7210455560060001
8898, DIMNAN , CN(C)c1ccc(cc1)N(=O)=O , P21 ,0,0,1.3554451365600002,0.680554485945
8899, KOMTAH , CC(C)(C)c1cc2Cc3cc(cc(Cc4cc(cc(Cc5cc(cc(Cc(c1)c2O)c5OC(=O)c1cc(cc(c1)N(=O)=O)N(=O)=O)C(C)(C)C)c4OC(=O)c1cc(cc(c1)N(=O)=O)N(=O)=O)C(C)(C)C)c3O)C(C)(C)C , P21/c ,1,0,1.2627739991700002,0.636166024818
8900, VAHDOY , CCOC(=O)C1=C(C)NC(=C(C1C1=C(C)ON=C1c1ccccc1OC)C(=O)OCC)C , P21/c ,1,0,1.33361523165,0.689643132221
8902, VIRJIP , C[N+]([O-])=CC1OC(OC1(C)c1cc(OCc2ccccc2)ccc1OCc1ccccc1)c1ccccc1 , P21/n ,0,0,1.28436340403,0.684236353665
8906, REWCEB , CCOC(=O)N1C(N)NC(=C(C1c1cccc(c1)N(=O)=O)C(=O)OCC)C , C2/c ,1,0,1.37958361353,0.6776734158390001
8907, MFURCH10 , CC1=NON(=C1C(=O)NN)[O] , P21/c ,1,1,1.5901486068200001,0.7214980295219999
8909, ZENQDX , ON=C1C=Cc2ccccc2C1=NO , P21/c ,1,0,1.43186183666,0.7179089026919999
8911, DAKKOS , CC1=C(C(CC1)C(C)(C)Oc1ccc(cc1)N(=O)=O)C1CC1(CO)CO , P21/n ,0,0,1.33283856391,0.725924736815
8912, HUYWEF , O=N(=O)c1ccc(N2N=C(C=C2c2ccccc2)c2ccccc2)c(c1)N(=O)=O , P212121 ,0,0,1.42303053625,0.694459566625
8913, IREJEV , CC1(C)OC2C(C(C3OC2(C(O1)C(C3N(=O)=O)C1=CC=CO1)N1CCCC1)N(=O)=O)C1=CC=CO1 , P21/n ,0,0,1.3750643716600002,0.66186289616
8915, SAQSUA , Cc1ccc(cc1)C(c1c[n+](Cc2ccc(cc2)N(=O)=O)cc2ccccc12)[C-]1C(=O)CC(C)(C)CC1=O , P-1 ,1,1,1.13945966434,0.603487903226
8916, KOWXOJ01 , CC(=NO)c1ccccn1 , P21/c ,1,0,1.3369003812,0.718683847216
8917, NIRSUC , CN1OCC2C(OC(=O)c3ccccc3)C(OC(=O)c3ccccc3)C(OC(=O)c3ccccc3)C12 , P212121 ,0,0,1.28896894498,0.647129493764
8918, POLWUK , NC(=NN=Cc1c(cc(cc1N(=O)=O)N(=O)=O)N(=O)=O)N1N=Cc2c1cc(cc2N(=O)=O)N(=O)=O , Aba2 ,0,0,1.68344504194,0.713963855422
8919, LABJON01 , O=C1CN(N=CC2=CC=C(O2)N(=O)=O)C(=O)N1 , P-1 ,1,1,1.65620331808,0.732669683258
8921, PUBMUU03 , O=N(=O)N1C2C3N(C1C1N(C(C(N3N(=O)=O)N1N(=O)=O)N2N(=O)=O)N(=O)=O)N(=O)=O , Pca21 ,0,0,1.98567722625,0.744613255993
8922, MUSKUI , CC(=NNc1ccc(cc1N(=O)=O)N(=O)=O)C1=CC2C(C1)C=CCC2C(=O)OC1C(=O)OCC1(C)C , P21 ,0,0,1.36136512111,0.670625358577
8923, BEHNEI , O=C(Nc1ccc(cc1)N(=O)=O)OCCCC1CC2CCCCCCC2O1 , P-1 ,1,1,1.28843106449,0.689811264005
8924, JATYEL , O=CC=CC1=C2CCCC2=C(O1)c1ccc(cc1)N(=O)=O , P-1 ,1,1,1.46271712352,0.726832915512
8925, EACBIT , CON=C(C=Cc1ccccc1)C#N , P21/c ,1,0,1.1978206828,0.658604651163
8926, LOXFUB , Cc1[n+]([O-])c(C)c(C)[n+]([O-])c1C , P21/c ,1,0,1.37833066004,0.740421597633
8927, CANKIL , CNC1=NC(=C(C1=Nc1ccccc1)N(=O)=O)NC , P21/a ,0,1,1.3526939695,0.6721709401710001
8929, QELYEO , Cc1cc(Cc2cc(C)cc(c2O)N(=O)=O)c(O)c(c1)N(=O)=O , C2/c ,1,0,1.49819009317,0.726832671461
8931, LUHWEQ , CC1=NN2C(=O)C(=NN(C2=N1)C12CC3CC(CC(C3)C1)C2)N(=O)=O , Pbca ,1,0,1.4640659466600001,0.70656176766
8932, IFAYIZ , CC(C)N1C=CN(C(C)C)C1=NN=O , P21/c ,1,0,1.16654606784,0.652046783626
8933, LEWXOB , COC(=O)CC(C)C(C(C)C)N(O)C(C)c1c(cc(cc1C(C)C)C(C)C)C(C)C , P21/a ,0,0,1.07981459495,0.643800428934
8935, QABGEI , O=N(=O)c1ccc2N(C(=Cc2c1)CC=Cc1ccccc1)c1ccccn1 , P-1 ,1,1,1.3623150232499999,0.702051192146
8936, COTLIH , Cc1ccc(c(c1N)N(=O)=O)N(=O)=O , P-1 ,1,1,1.5803582173800002,0.7334390415790001
8937, ANOSAY , COC(=O)c1ccc2N3CCc4cccc(C(Nc2c1)c1cccc(c1)N(=O)=O)c34 , P-1 ,1,1,1.39880846554,0.7001882720300001
8938, DOXGON , CC(C)(C)OC(=O)C(=[N+]=[N-])c1ccc(cc1)N(=O)=O , P21/c ,1,0,1.39713372622,0.7092761857709999
8939, ZILKIR , CC1CC2CCC(c3ccccc3)C2(C1)OC(=O)c1cc(cc(c1)N(=O)=O)N(=O)=O , P21/c ,1,0,1.31314962644,0.661160384331
8940, EZUMAO , COc1cc(cc(OC)c1OC)C1CC2C(C(=O)N(Cc3ccccc3)C2=O)C2=C1c1cc(ccc1N2)N(=O)=O , P-1 ,1,1,1.37286858909,0.682943360027
8941, HMBFZO , CC1(C)CC(=O)C2=N([O])ON=C2C1 , P-1 ,1,1,1.38060726245,0.675
8943, AMOLIZ , CC1(C)CC2C(OC1OC2(C)C)c1ccc(cc1)N(=O)=O , P21/n ,0,1,1.2999487597700001,0.684464464464
8944, EABXIO , O=C(ON1C(=O)CCC1=O)C=[N+]=[N-] , P212121 ,0,0,1.5235175308700002,0.685267257588
8945, CATJAI , O=NN1CC(CN(CC(C1)(N(=O)=O)N(=O)=O)N=O)(N(=O)=O)N(=O)=O , Pbca ,1,0,1.7814480632299998,0.732699493874
8946, AFONEQ , COc1ccc(cc1)C1Oc2ccccc2C2C1(C1CCCCN1C12C(=O)Nc2ccccc12)N(=O)=O , P-1 ,1,1,1.35164475521,0.6732538480120001
8947, YAQJAC , CC(=O)OCC1OC(Oc2cccc(c2)N(=O)=O)C(OC(C)=O)C(OC(C)=O)C1OC(C)=O , P21 ,0,0,1.3655936477700001,0.656490055772
8948, PQUAZX , [O-][n+]1cc2ccccc2[n+]([O-])c1c1ccccc1 , Pca21 ,0,0,1.4506088141799998,0.677601067474
8949, DAVXIH , CC1=C(N(=O)=O)C(C)(N(=O)=O)C(C)(C(=O)C1(C)O)N(=O)=O , P21/c ,1,0,1.5196338748299998,0.698039215686
8950, SAGWOP , COc1ccc2NC(C(C(C3=C(C)c4ccccc4N3)c2c1)c1ccccc1)c1ccc(cc1)N(=O)=O , P21 ,0,0,1.33166967635,0.694102771153
8951, QOGPAF , CC(C)C1CCC(C)CC21N(C)C(=O)C1C3CCCCCCC3ON21 , P43 ,0,0,1.1741308477299999,0.678918561095
8952, NUHTOA , CC1CC1CCC(OCc1ccccc1)C(C)=NNc1ccc(cc1N(=O)=O)N(=O)=O , P-1 ,1,1,1.32277720713,0.694677755819
8953, ENAQUH , CC1(C)N([O])C(=N([O])C1(C)C)c1ccc2cc3cc(ccc3cc2c1)C1=N([O])C(C)(C)C(C)(C)N1[O] , P21/c ,1,0,1.32270571892,0.7029356060609999
8954, KAPCAF , CC1=C(C)c2cc(ccc2N1)N(=O)=O , P21/n ,0,0,1.34119514342,0.6926886636190001
8955, PYBZNO10 , CC(C)=C1C2ON(C1C(=O)C(C)(C)ON2C(C)(C)C)C(C)(C)C , Pna21 ,0,0,1.0881247811499999,0.651312050019
8956, VOXFET , CNC(=O)N(N=O)c1ccc(OC)cc1 , P-421c ,0,0,1.3492538682700002,0.6711450012100001
8957, HEGBON , O=C1OC(=NC1=CC1=CC=CO1)c1ccc(cc1)N(=O)=O , P21/c ,1,1,1.55481891596,0.725920360631
8958, BEGLAA01 , N1C(C=Nc2ccccc12)=NOc1cnc2ccccc2n1 , P21/n ,0,0,1.40840168339,0.686182594077
8959, CUXSIY , CC(=O)N1C(Cc2ccccc2)C(=O)NC(=CC2=CN(C(=O)OC(C)(C)C)c3cccc(c23)N(=O)=O)C1=O , P21/n ,0,0,1.37460727352,0.6903400087530001
8960, VITPUK , Cc1cc(C)c(O)c(c1)C1=C2C=CC=CC2=NO1 , P212121 ,0,0,1.2959118617899998,0.67588978186
8961, TEJYUD , CON=C1CCCCCCCCCC23CCCC1(OO2)O3 , P21/c ,1,0,1.2427315751799999,0.6916521063869999
8962, DEJWAQ , CCN1C(=NC2=NOC(=O)C(=C12)c1ccccc1)C , P21/n ,0,0,1.32407295787,0.669974577014
8963, CESVOL , COC(=O)C12C3CCCC4=NOC(CC1C(=O)CCC2=O)C34 , P-1 ,1,1,1.4149396999000001,0.706458461103
8964, NIRJEE04 , Cc1cccc(C=NO)c1O , P21/c ,1,0,1.63137576001,0.8422825540469999
8965, NOBSEE , O=N(=O)CC(c1ccccc1)C1=C(ON=C1c1ccccc1)c1ccccc1 , Pbca ,1,0,1.2611639269,0.642077014292
8967, FOXLIO , O=N(=O)C=Cc1cccc2ccccc12 , Pbca ,1,0,1.3855393753799998,0.721177699439
8968, BAZPUO , COc1cc(ccc1N(=O)=O)N(C)C , P-1 ,1,1,1.36165947278,0.6991581617939999
8969, WAHYIP , O=C1c2ccccc2C(=O)C2=NN(N=CC3=CC=C(O3)N(=O)=O)N=C12 , P-1 ,1,1,1.5966493964,0.7175877157439999
8970, TUPNEY , COc1ccc(CN2CC3C=CC(C(C3C2=O)c2ccc(cc2)N(=O)=O)c2ccccc2)cc1 , P-1 ,1,1,1.2898534720700001,0.6725451967389999
8971, AROBAL , CC(C)(C)C(OC(=O)c1cc(cc(c1)N(=O)=O)N(=O)=O)C1CC2CC(C1=C)C2(C)C , P21 ,0,0,1.28368044685,0.6798109074140001
8972, SASCEW , CC(C)(C)OC(=O)N1C(=O)C2(CC(C)(O)C(C2c2ccccc2)N(=O)=O)c2ccccc12 , P21 ,0,0,1.28707049765,0.6633953202880001
8973, SULSID , Cc1cc(C=Cc2ccc(cc2N(=O)=O)N(=O)=O)cc(C)c1O , P-1 ,1,1,1.42445737227,0.7021521335809999
8974, MIWFIH , CC1=C(C(c2cccc(c2)N(=O)=O)C(=C(C)[N]1)C(=O)c1ccccc1)C(=O)c1ccccc1 , P21/c ,1,0,1.3474005809099998,0.632590632591
8975, JABMAD , O=N(=O)N1C=C(C=N1)N1C=NN=N1 , Pbca ,1,0,1.78646891852,0.7639044289040001
8976, REYJOU , CC(=O)OCC1OC(C(OC(C)=O)C(OC(C)=O)C1OC(C)=O)N(N=CN(=O)=O)C1=NC=NN1 , P212121 ,0,0,1.36488429815,0.635230352304
8978, LIBMUF , COc1ccc(C(C)=NNC(=O)c2ccc(cc2)N(=O)=O)c(O)c1 , P21/n ,0,0,1.4527761296200001,0.714652368632
8979, FIKSOK , CC(CC=CC(OC(=O)c1ccc(cc1)N(=O)=O)C(C)(C)C)OC(=O)c1ccc(cc1)N(=O)=O , P212121 ,0,0,1.29417013896,0.663201298701
8980, PIZQIY , CCC12CCCN3C(=O)C(=C(C(=C13)CC2)c1ccccc1N(=O)=O)C(C)=O , P21/n ,0,0,1.2968208911599999,0.661375201328
8981, BOWHIE01 , CN(O)C(=O)c1ccc(C)cc1 , P21/n ,0,0,1.27652297589,0.6897079772079999
8984, VECXIM , CC1=NOC(=O)C1=CC1=CNc2ccc(OCc3ccccc3)cc12 , P21/n ,0,0,1.38922600888,0.706383499487
8985, DOWQEN , CNc1ccccc1N(=O)=O , P21/c ,1,1,1.3867689515900001,0.699597099114
8986, NAYPAH , OC12C3OC(C(OCc4ccccc4)C=C3)C1C1CCCCC1C2=NNc1ccc(cc1N(=O)=O)N(=O)=O , P212121 ,0,0,1.4175328150100002,0.70633535369
8989, OKUXUN , CC1(C)NC(=N([O])C1(C)C)c1ncccc1O , C2/c ,1,0,1.2146568641700002,0.647560717839
8990, CMZOXB , Cc1ccc(cc1)N=N([O])c1ccccc1 , P21/c ,1,0,1.25804207793,0.681727295526
8991, RAYDON , CCCCCNc1ccc(c(NCCCCC)c1)N(=O)=O , R-3 ,1,0,1.0971751132799998,0.6490851593460001
8992, NUCDEW , Cc1ccc2NC(=O)C(CN(=O)=O)(C(C#N)C#N)c2c1 , P21/c ,1,0,1.36943607167,0.666004728132
8993, FULQAF , COC(=O)CC(C)=NNc1ccc(cc1)N(=O)=O , P-1 ,1,1,1.39755593117,0.701551724138
8994, QOMSEQ , CCOC1CC2(ON=C(c3ccccc3)C32CC(OCC)ON3O1)C(=O)OC , P21/c ,1,1,1.3203870318200002,0.662014354814
8995, SIPBAU , CC(OC(=O)c1ccc(cc1)N(=O)=O)C1CC2CC(C1=C)C2(C)C , P21 ,0,0,1.23447171854,0.669602736928
8996, SEBFAJ , O=N(=O)c1ccc2c(c1)c(C#N)c1cc(ccc1c2C#N)N(=O)=O , P21 ,0,0,1.62582296107,0.7575786384000001
8997, OWOPOH , CC(OC(N)=O)C(N(=O)=O)(N(=O)=O)N(=O)=O , P21/c ,1,1,1.74632102626,0.722975708502
8999, MNPHOL13 , Oc1cccc(c1)N(=O)=O , P21/n ,0,0,1.52829851666,0.7316560770649999
9000, FIDCIF , O=N(=O)c1cccnc1OCc1ccccc1 , P-1 ,1,1,1.39392852773,0.6890442890440001
9001, LEGYOO , O=N(=O)NN1C2=C(C(=NN2CN2N=C(C(=C12)N(=O)=O)N(=O)=O)N(=O)=O)N(=O)=O , Pnma ,1,0,1.98972230645,0.768665490888
9002, QOGYOB , CCOC(=O)c1ncn([O])c2cc3c4ccccc4c3cc12 , C2/c ,1,0,1.46114228766,0.72922707141
9003, YIFRAH , O=N(=O)c1ccccc1C=CC=Nc1cccc2ccccc12 , P21/c ,1,0,1.35242850305,0.703695487401
9006, FIJFOT , CCCCCCCCCCCCCCCC(=O)ON=C(c1ccccc1)c1ccccn1 , P21/n ,0,1,1.1282714055,0.673284103057
9007, XACVIH , CC1(C)COC(=N1)C1(OC1c1ccccc1)c1ccc(cc1)N(=O)=O , Pbcn ,1,0,1.25649729677,0.651850981621
9008, MOFHEU , CCOC(=O)COc1c2CCCc3cc(cc(CCCc4cc(cc(CCCc1cc(c2)N(=O)=O)c4OCC(=O)OCC)N(=O)=O)c3OCC(=O)OCC)N(=O)=O , Ia-3 ,1,0,1.23496200866,0.710884634368
9009, RUGKAG , CN(C)c1ccc(cc1)C=C1C(=O)ON=C1C , P-1 ,1,1,1.31393431255,0.688946845504
9011, SOBWAI , O=N(=O)C(=Cc1ccccc1)C1=[N+]([O-])OC(C1)c1ccccc1 , P21/c ,1,0,1.3662093345299997,0.688053485993
9012, FAKVAO , [O]N(=Cc1ccccc1)C1C(CO)COC1Cc1ccccc1 , P21 ,0,0,1.24101191677,0.6783203125
9013, HASDUC , CC(C)(C)N([O])c1cc2Oc3cc(cc4Oc5cc(cc6Oc(c1)c2N(c34)c56)N([O])C(C)(C)C)N([O])C(C)(C)C , Pbca ,1,0,1.3832573669400001,0.7056691505220001
9014, FETRAY , COc1ccc(cc1)C(=O)C(C)Oc1ccc(C)nc1N(=O)=O , P21/c ,1,0,1.3551657649700002,0.681252818929
9015, TOXDOB , CC(=O)CCC1(Cc2ccccc2)C(=O)ON=C1C , P212121 ,0,0,1.26906641801,0.6917230306759999
9016, PUPBAD01 , Nc1ncc(cn1)N(=O)=O , P21/c ,1,1,1.55769591975,0.697852147852
9017, ZIWXUY , CC1(C)C(N(N=O)C(CC1=O)c1ccccc1)c1ccccc1 , C2/c ,1,0,1.35300997891,0.6813852813850001
9018, TAVMAG , CC(NCC1=C(ON(Cc2ccccc2)C1c1ccccc1)c1ccccc1)c1ccccc1 , P21 ,0,0,1.20236568031,0.66683127572
9019, DECLEF , CN1N=NC(=N1)N=N([O])C1=NN(C)N=N1 , P21/c ,1,0,1.54391965421,0.677837104839
9020, VORFUF , CON(C)C(=O)C1(CC=C)C(COCc2ccccc2)N(C1=O)C(c1ccccc1)(c1ccccc1)c1ccccc1 , P65 ,0,0,1.23925437395,0.677094767378
9021, YUBWIB , CC(C)(C)N([O])c1ccc(cc1)C1=N([O])C(C)(C)C(C)(C)N1[O] , P21/n ,0,0,1.2221307604,0.665009620826
9025, EKUMOM01 , O=N(=O)c1ccc(N=NC2(CCCCC2)N(=O)=O)c(c1)N(=O)=O , P21/c ,1,0,1.4529456626700001,0.6950620758670001
9026, VOYQIL , CC(OC(=O)c1ccc(cc1)N(=O)=O)C1=Nc2ccccc2C(=O)N1N1C(C(C)=O)C1(C)C , C2 ,0,0,1.3510968116,0.667796248934
9028, YIYNIF , CN1C(=O)C(C(CC2=C(Cc3ccc(cc3)N(=O)=O)C(=O)N(C2=O)C(C)(C)C)C(=O)c2ccccc2)c2ccccc12 , P21/n ,0,0,1.27127228714,0.6544170929240001
9029, QACWEZ , CC(C)(C)OC(=O)N1CC(C1)C1=NOC=C1C(O)=O , C2/c ,1,1,1.34971767939,0.6805641448499999
9031, ROMVUL , O=CC(C=O)=C1NC(c2cccc(c2)N(=O)=O)c2c(O1)ccc1ccccc21 , P21/n ,0,0,1.4423418438,0.696563753707
9032, YICRIN , COC(=O)C1C(C(C(O)C2=C1Nc1ccccc21)N(=O)=O)c1ccccc1 , P21/c ,1,0,1.38791764125,0.676310490751
9033, XEVFEL , CC(C)OC1OC(COC(C)=O)C(=O)C2=C(N(N=C12)c1ccccc1)c1ccc(cc1)N(=O)=O , P212121 ,0,0,1.4105369790600002,0.705438786566
9034, DZOCTO , [O-][N+]1=NC2CCC1CC2 , P21/n ,0,0,1.28566466213,0.6801874595990001
9035, LOVJEN , [O-][n+]1cnc2ccccc2c1c1ccccc1 , P21/c ,1,0,1.36919715509,0.7049524620409999
9037, IYIGEE01 , COC(=O)C1=C(C)NC2=C(C1c1ccc(cc1)N(=O)=O)C(=O)CC(C)(C)C2 , P-421c ,0,0,1.25794106255,0.661848072562
9039, NAHCUU , CC1(C)C(N(C(=O)c2ccc(cc2)N(=O)=O)c2ccccc12)c1c(O)ccc2ccccc12 , R-3 ,1,0,1.28778382324,0.6102479527
9042, SATCAS , CN(c1cccc(c1)N(=O)=O)N(=O)=O , P21/c ,1,0,1.5596039318000001,0.736738090285
9043, OFAMUG , CCCCC(C)(CC=NNc1ccc(cc1N(=O)=O)N(=O)=O)C=CC(C)c1ccc(OC)c(OC)c1 , Pca21 ,0,0,1.25069402824,0.665713102612
9044, MOQJUY , CC(C)(C)OC(=O)NC1(CC1C1CC(=NO1)O)C(O)=O , P21/n ,0,0,1.28327376891,0.6271172298709999
9047, TIQQAM , CC(C)(C)N1OC(=C(C1c1ccccc1)C(=O)c1ccccc1)c1ccccc1 , P21/n ,0,1,1.21218176485,0.6720532741399999
9048, EMEXAW , COc1ccc(CN2C=Nc3cc(c(nc23)c2ccccc2O)N(=O)=O)cc1 , P212121 ,0,0,1.39375710351,0.688606403013
9049, UCULOT , CN(C)C1CCCCC1=NO , Pbca ,1,0,1.12863927452,0.6524881557559999
9050, HAYVUB , ON=Cc1c2ccccc2cc2ccccc12 , P21/c ,1,0,1.41046001206,0.7557670126870001
9051, VUGVUQ , CC1(C)CC(=O)C(=CC=Cc2ccc(cc2)N(=O)=O)C(=O)C1 , P21/n ,0,0,1.2869915825,0.670025417574
9052, DASTUO , CCC[NH2+]Cc1cc(ccc1[O-])N(=O)=O , P-1 ,1,1,1.37731255162,0.717658003372
9054, NIBHIR , CCCCCC1(CCCCC)c2c3ccc(cc3c3ccccc3c2c2c3ccccc3c3cc(ccc3c12)c1ccc(cc1)N(=O)=O)c1ccc(cc1)N(=O)=O , P41212 ,0,0,1.30581937177,0.699899245165
9055, YAGHUL , O=N(=O)c1ccc(CCc2c(cc(cc2N(=O)=O)N(=O)=O)N(=O)=O)c(c1)N(=O)=O , P21/n ,0,0,1.6723767152200002,0.7261403921359999
9056, OKUXUP , O=N(=O)N1COCN(C1)N(=O)=O , P21/n ,0,0,1.7922284913599997,0.759408258834
9057, TEYMAN , CC1(C)CC(=O)C2=C(C1)NC(=C(C2c1ccc(cc1)N(=O)=O)c1ccccc1)c1ccccc1 , P21/c ,1,0,1.2402143428799999,0.650762453828
9058, HIGBII01 , CC12CC3(C)CC(C)(CC(C)(C1)N3[O])N2[O] , C2/c ,1,1,1.22861260462,0.671985548698
9059, SEGRUR , Nc1cc(ccn1)N(=O)=O , P21/c ,1,1,1.47379177476,0.687421529877
9060, TIHBES01 , CN1N(c2ccccc2)C(=O)C(=C1C)N=CC1=CC=C(O1)N(=O)=O , P21/n ,0,1,1.42111163184,0.699938949939
9061, VODQEK , CC(C)(C(CC(=O)c1ccccc1)C1=CC=CO1)N(=O)=O , P21 ,0,1,1.2567632955299999,0.65998185118
9062, LIVWET , O=C(CN1C=CN=C1N(=O)=O)NCc1ccccc1 , P21 ,0,0,1.44589830605,0.7190806368770001
9063, REKKAW , CCC1=CC(=NN1c1ccc(cc1)N(=O)=O)c1ccccc1 , P21/c ,1,0,1.31368267312,0.6795739348370001
9064, DEMGAE , Cc1ccc(cc1)C1C(c2ccccc2)C(=O)C(C(N1N=O)c1ccc(C)cc1)c1ccccc1 , P-1 ,1,1,1.09983866492,0.592648082277
9066, ERAWEB , CN1C=C(C2C3CC4C(O3)C24)c2c1cccc2N(=O)=O , P21/c ,1,0,1.40430900764,0.7010939510940001
9067, PIQQEL , CCC(C(C)OCc1ccccc1)N(O)Cc1ccccc1 , P-1 ,1,1,1.15878282172,0.666956521739
9068, NOFLUP , OC(CNc1ccc(cc1)N(=O)=O)c1ccccc1 , P21/n ,0,0,1.32361480404,0.676622315593
9070, SEJPOP , Cc1cc(C)c(C2N(c3ccc(cc3)N(=O)=O)C(=O)c3ccccc23)c(C)c1 , P21/c ,1,0,1.28368500469,0.669371897259
9071, VUNMIB , Cc1ccc(cc1C)N=Cc1cccc(c1)N(=O)=O , C2/c ,1,0,1.29565335363,0.6764124141399999
9072, BANWUJ , COC(=O)C(C)Oc1ccc(O)c(c1)C1=[N+]([O-])C(C)(C)C(C)(C)N1[O] , P212121 ,0,0,1.31294148167,0.678900502264
9073, YOWXUE , CC1(C)N([O])C(=N([O])C1(C)C)c1c2ccccc2ccn1[O] , P21/c ,1,0,1.29732459507,0.672545766483
9074, YIBWUE , O=C1N2Cc3cc4OCCOc5ccccc5C5=C6NC(=C7C8=NC(=C9C%10=CC=C(N%10)C(=C%10C=CC5=N%10)c5ccccc5OCCOc4cc3CN3C(=O)N4Cc5c(CN1C4(c1ccccc1)C23c1ccccc1)cc(OCCOc1ccccc71)c(OCCOc1ccccc91)c5N(=O)=O)C=C8)C=C6 , P-1 ,1,0,0.989840511879,0.486367611336
9075, MUKKUY02 , CC1(C)N([O])C(=N([O])C1(C)C)c1ccc(N)cc1 , Pbca ,1,0,1.2221887316700002,0.651989218453
9076, HERBEN , O1N=C(C(C1c1ccccc1)c1ccccc1)c1c2ccccc2cc2ccccc12 , P-1 ,1,1,1.27386809612,0.677085626238
9077, EMAWUL , CC(=O)c1cc(ccc1O)N=Nc1ccc(cc1)N(=O)=O , C2/c ,1,0,1.30811052908,0.7257349657350001
9078, TALDES , CC1OC(O)C(O)C(C1O)N(=O)=O , P212121 ,0,0,1.51955453676,0.707768595041
9079, WINVEV , COc1cc(C=C2c3ccccc3C(=O)c3ccccc23)cc(c1O)N(=O)=O , P21/c ,1,0,1.46948443905,0.722565560242
9080, SUYMEE , N(OC(c1ccccc1)(c1ccccc1)c1ccccc1)C(c1ccccc1)(c1ccccc1)c1ccccc1 , P-1 ,1,0,1.21634986278,0.6884606938950001
9081, HALJUZ , CC(C)c1cc(C(C)C)c(c(c1)C(C)C)N(=O)=O , Ia ,0,1,1.0538448859799998,0.643803490801
9082, POLZAR , CC1(C)CCCC2(C)C3CCC12CC3OC(=O)c1ccc(cc1)N(=O)=O , P-1 ,1,1,1.25672577031,0.672900775051
9083, ZIVBUB , CN1Cc2cc(ccc2OC1=O)N(=O)=O , P21/n ,0,0,1.5529551489700002,0.728122742148
9084, SEFTEF , CCC1=C(N(C1)C(=O)OC(C)(C)C)c1cccc(c1)N(=O)=O , P-1 ,1,1,1.29632250905,0.689874035739
9085, VEVDIK , COC(=O)C1(CC1C(=O)Nc1ccccc1)c1ccccc1N(=O)=O , P21/c ,1,0,1.39690084596,0.704825670105
9086, WEDGET , CCOC(=O)C1C(C2c3ccccc3C1c1ccccc21)c1cccc([n+]1[O-])c1cccc2ccccc12 , P212121 ,0,0,1.29853199776,0.678041771279
9087, RASDEU , OC(=O)C(=O)Cc1ccccc1N(=O)=O , P21/c ,1,0,1.54310657507,0.686586538462
9088, ATUSEP , CCOc1ccc(cc1)N(c1ccc(cc1)c1cc(nc(c1)c1ccccn1)c1ccccn1)c1ccc(cc1)N(=O)=O , P21/c ,1,0,1.2924391275700002,0.65997915581
9090, MIBJUD , COC1(C)OC2C(O)CC3CON=C3C2OC1(C)OC , P21 ,0,0,1.2952054036799998,0.645590224928
9091, BOGSIA , CC=CC=NNc1ccc(cc1N(=O)=O)N(=O)=O , P21/c ,1,1,1.43074154401,0.688064859117
9092, NBZOAC02 , OC(=O)c1ccc(cc1)N(=O)=O , P21/c ,1,0,1.6264113499200001,0.75059819213
9093, LATPIF , CC1(C)CC(O)(Cc2ccccn2)CC(C)(C)N1[O] , P41 ,0,0,1.1749524439899999,0.6596924978750001
9094, XOBQEL , CCOC(=O)CN1C=NC2=C(C1=O)C(=NO2)c1ccccc1 , P21/n ,0,1,1.4648055979299999,0.723849972421
9095, GATXOR , CC1CC2C3OC(COC(=O)c4ccc(cc4)N(=O)=O)C(O3)C(OC(=O)c3ccc(cc3)N(=O)=O)C2O1 , P212121 ,0,0,1.4777912818399999,0.6999487967229999
9096, NTRGUA03 , NC(N)=NN(=O)=O , Fdd2 ,0,0,1.7519096845400002,0.7583021223469999
9097, IZECOF , CC1(CC(C1)C(CN1C(=O)CCC1=O)=NO)c1ccccc1 , P21/c ,1,0,1.28096143017,0.6810035842290001
9098, RALDUE , None , P-1 ,1,1,1.25000847807,0.687299679487
9100, KAZNUX , Cc1ccc(cc1)C(=C)C1CCCCC1C(OC(=O)c1ccc(cc1)N(=O)=O)c1ccccc1 , P-1 ,1,1,1.2302999595200002,0.663720538721
9101, PURSEB02 , O=N(=O)c1ccc(OCCN(CCOc2ccc(cc2)N(=O)=O)CCOc2ccc(cc2)N(=O)=O)cc1 , Pna21 ,0,0,1.38368200951,0.6782290428059999
9102, LORJAD , CCOC(=O)C(=CNN=C1N(C)C(=O)N(C)C(=O)C1=NO)N(=O)=O , P21/c ,1,0,1.49249379212,0.679837183376
9103, WEVVEZ , COC(=O)c1ccc(NC2=NNC(=C2)C)c(c1)N(=O)=O , P-1 ,1,1,1.50027423709,0.722109227872
9104, TEKJIC , CCOC(=O)C1=C(C)ON=C1c1c2ccccc2cc2ccccc12 , P21/n ,0,0,1.2857092527299998,0.664943430953
9106, SAHVED , CC(CCC1=NC(=NO1)c1ccc(C)cc1)OC1OC(CO)C(O)C=C1 , P212121 ,0,0,1.25534634564,0.587579329848
9107, NITPOL03 , Oc1ccc(cc1)N(=O)=O , P21/c ,1,0,1.5100027522,0.738820912125
9109, BEJMOV , O=C1C2ON(C(C2C(=O)N1c1ccccc1)c1ccccc1)c1ccccc1 , P212121 ,0,0,1.30957645035,0.668243910467
9110, TIFFEV , CN1C=CC(=C1)C1=CC(=NO1)N1CCOCC1 , P21 ,0,0,1.3443707317700002,0.7003571428569999
9111, HEFDOO , CN(C)c1ccc(cc1)C#CC=CC#Cc1ccc(cc1)N(=O)=O , P21/c ,1,0,1.3206421275,0.709457050634
9112, WOKCIJ , CC1(C)C(=O)C2(OC3(C2c2ccccc2)C(=O)C(C)(C)N(=C3c2ccccc2)=O)C(=N1=O)c1ccccc1 , P212121 ,0,1,1.27782696396,0.660241143642
9113, COLQUQ , CCCCCOc1ccc(cc1)c1ccc(cc1)c1ccc(cc1)C(=O)ON1N=Nc2ccccc12 , C2/c ,1,0,1.2637453944600001,0.6590878543500001
9114, DOKLUL , CC(=O)OC1CC(OC(=O)c2ccc(cc2)N(=O)=O)C(OC(=O)c2ccc(cc2)N(=O)=O)C(OC(C)=O)C1OC(C)=O , C2 ,0,0,1.38503143884,0.649583221012
9115, JIFMIU , CC1ON=C(C1C1ON=C(C1C)c1c(C)cc(C)cc1C)c1c(C)cc(C)cc1C , P21/c ,1,1,1.14101185907,0.656393100809
9116, VADGAK , CC1C2CC(CC1=O)C(C)(C)OC2C=Cc1ccc(cc1)N(=O)=O , P21/c ,1,0,1.2698806038700001,0.677485096603
9118, GEFFUV , O=C1CC2CC3CC4(OCCO4)C42CCCN2CCC(O2)C14C3 , P21/c ,1,0,1.37910542032,0.712839520362
9120, CIVTUW , O=C1Oc2cc(c(cc2c2ccc(cc12)N(=O)=O)N(=O)=O)N(=O)=O , P212121 ,0,0,1.70312473968,0.7114609181139999
9121, NUJBEZ01 , ON=C1CCCCC1OC(=O)c1ccccc1 , P21/c ,1,0,1.89728611681,0.724668814894
9122, RAGGOX , CC1(C)CC(C=[N+]1[O-])=NO , P-1 ,1,1,1.3192655207,0.6905284552850001