ID,name,smiles,space_group,inversion_symmetry,beta_packing,density,packing_coefficient
8669, SAPWEL , COC(=O)C1CCC2C(C1)ON=C2C(C)=O , P21/n ,0,0,1.37730548469,0.709572000843
8670, MUCTEL , CCOC(=O)C1CC(C(ON2C(C)(C)CCCC2(C)C)c2ccccc2)C(C1c1ccccc1)(C(=O)OCC)C(=O)OCC , P212121 ,0,0,1.1972944242,0.6672825717249999
8671, ANANAG , O=C1C2C(CN1OCc1ccccc1)C=CCC2C(=O)N1CCCC1C#N , P212121 ,0,0,1.23575606539,0.651826884816
8672, OJEJUK , CC(C)(C)OC(=O)N1C(=O)C(C)(C(CN(=O)=O)c2ccccc2)c2ccccc12 , Cc ,0,0,1.30109088574,0.680270208206
8674, HEKSOI , O=C(NC1CCCCCCCCCCCCCC(C1)c1ccc(cc1)N(=O)=O)c1ccccn1 , P-1 ,1,1,1.22939182792,0.7001757895370001
8675, IBOMET , CC1(N=C(N=C(N1[O])c1ccccc1)c1ccccc1)c1ccccc1 , P-1 ,1,1,1.27639070949,0.6840734387899999
8676, QAHPIZ , OC(=O)C=CC1=NN=C(N1c1ccc(cc1)N(=O)=O)c1ccccn1 , P21/c ,1,0,1.27685742015,0.61427849777
8677, JULGAY , COc1ccc(cc1)C=C(C)N(=O)=O , P212121 ,0,1,1.3149345184299999,0.692813781523
8678, QOYJOD03 , O=C1NN=C(N1)N(=O)=O , P21/c ,1,0,1.9012103306700001,0.7503303819220001
8679, GAFPEI01 , CC1(C)OCC(O1)C1OC2OC(C)(C)OC2C1(O)C(N)=NO , P212121 ,0,0,1.3640703282100002,0.692963741987
8682, XAKLED , O=N(=O)C1=C2N(CCC2=Cc2ccccc2)N=C1 , P21/n ,0,1,1.4068570339,0.7097701149429999
8683, ULEPIL , CCCCCCCCCCN1C(=O)Nc2cc(ccc12)N(=O)=O , P-1 ,1,1,1.24033824251,0.675671550672
8684, YEKQAG , Nc1[n+]([O-])c(N)c(nc1N(=O)=O)N(=O)=O , P21/n ,0,0,1.9186478480400002,0.770809943865
8685, OPOXAZ , OC1=NOC(=C1)c1ccccc1 , P21/c ,1,0,1.35441595864,0.698246836178
8686, SOJQEP , CCOC(=O)C=C(O)c1ccc(cc1)N(=O)=O , P21/c ,1,1,1.45259576621,0.719940665395
8687, BUYKEL , CC(=NNc1ccc(cc1N(=O)=O)N(=O)=O)C1CCC=CC1C(C)(C)C#N , P21/c ,1,0,1.30870307983,0.6717765447190001
8688, TOPXUT , CCOC(=O)COc1ccc(cc1C=NO)N=Nc1ccccc1 , P21/c ,1,0,1.32535995046,0.674646841479
8689, DINFOV01 , O=N(=O)c1cc(cc(c1)N(=O)=O)C#N , P21/n ,0,0,1.57362032018,0.716349384099
8690, QOZZAI , CN1C(=O)C(=C(c2ccccc2)C21C=CC(=O)C=C2)CC1ON=C(c2ccccc2)C1(C)C , P21/c ,1,0,1.2724636253100001,0.676653225806
8691, MEWHIH , CNC1=C(C(c2ccc(OC)cc2)C(=C(O1)c1ccccc1)C#N)N(=O)=O , C2/c ,1,0,1.3219243471200002,0.667441487013
8692, ELOVAD , O=C(C=Cc1ccccc1OCCOc1ccccc1C=CC(=O)c1ccccc1N(=O)=O)c1ccccc1N(=O)=O , P21/c ,1,0,1.3481243047999998,0.670019110019
8693, CEGVOB , COc1ccc(cc1)C(=O)Nc1ccc(OC)cc1N(=O)=O , P21/n ,0,0,1.4484250257700002,0.7141496598639999
8694, LEHNIW , CN1C(=O)NC=C(C1=O)N(=O)=O , P21/c ,1,0,1.6784486328900001,0.726533044545
8696, QAPXAJ , COC(=O)c1ccc(cc1)C1=CCC2(C)C(CCC3(C)C2CCC2C4C(CCC4(CCC32C)C(=O)NO)C(C)=C)C1(C)C , P43212 ,0,0,1.19511677571,0.671701755444
8697, IQONUY , COCOC1C(OC)OCC2(OCOC(=C2)c2ccccc2N(=O)=O)C1OC , P212121 ,0,0,1.33263151211,0.671794613525
8699, DIFQEQ , O=N(=O)c1ccc(N2N=Cc3ccccc23)c(c1)N(=O)=O , P212121 ,0,0,1.56908107079,0.734584859585
8700, CADNUR , O=C1C2OC(OCc3ccccc3)C=CC2N1OCc1ccccc1 , C2 ,0,0,1.32612776702,0.6950138454350001
8701, RIPNOT , CCC1CCC2(CCCC2=NNc2ccc(cc2N(=O)=O)N(=O)=O)OC1 , C2/c ,1,0,1.39285987659,0.691504273504
8702, QETRUD , Cc1ccc(NC(=O)C2=C(C)NC(=O)NC2c2cccc(c2)N(=O)=O)c(C)c1 , P21/c ,1,0,1.3497287292299998,0.681910070606
8703, JIVZET , CCOC(=O)C(c1ccc(cc1N(=O)=O)N(=O)=O)c1ccc(cc1N(=O)=O)N(=O)=O , P21/c ,1,0,1.53890243936,0.688565549677
8704, CIPWED , [O]N(=CC1=C(Nc2ccccc2)c2ccccc2N1)c1ccccc1 , P-1 ,1,1,1.30344840367,0.6840696839079999
8705, RIGHUK06 , Cc1cccnc1Cc1ccc(cc1N(=O)=O)N(=O)=O , P21/c ,1,0,1.4054047854499998,0.68478724754
8707, TNIOAN , Nc1c(cc(cc1N(=O)=O)N(=O)=O)N(=O)=O , P21/c ,1,0,1.77335569103,0.7351166335379999
8709, UXULIJ , CC(N(OC(C)(C)C)C(=O)C=Cc1ccccc1)c1cccc2ccccc12 , P212121 ,0,0,1.21096847025,0.686126172681
8710, LEZGII , O=N(=O)c1ccc(cc1)N=Nc1ccc(OCCCCN2c3ccccc3c3cc(ccc23)C#C)cc1 , P21/c ,1,0,1.2709370052200002,0.663653654449
8711, KICVUQ , COc1ccc(cc1)C1C(C(=CC1(C#N)C(N)=O)c1ccccc1)N(=O)=O , P21/c ,1,1,1.3185415635,0.657649126399
8712, KOSJUX , C1ON=C2COC(C12)c1ccccc1 , P21/n ,0,0,1.3883751180700001,0.722433717982
8713, UDEGUH , COC(=O)C12C3CC4C5ON(N1OC3C=C5)C4(C(=O)OC)C2=O , P-1 ,1,1,1.61673358238,0.7367480519480001
8714, DUHYIP , Cc1c[n+]([O-])cc[n+]1[O-] , Pbca ,1,0,1.56570318891,0.76924088359
8715, VAYTAR , CCCC1=CC(=NN1c1ccccc1N(=O)=O)C1=NN(C(=C1)CCC)c1ccccc1N(=O)=O , P212121 ,0,0,1.35432148866,0.6880741923479999
8716, XIDSUA , CN(C)c1ccc(NC(=O)c2ccccc2)c2c(ccc(N(C)C)c12)N(=O)=O , P-1 ,1,1,1.35914909352,0.709882615253
8717, KAVFUI , O=N(=O)N1C=NC(=C1)N(=O)=O , P212121 ,0,0,1.79979573697,0.746073717949
8718, JOSWIX , ONC(=O)C1(CC1)NC(=O)OCc1ccccc1 , P21/n ,0,1,1.3263863030299998,0.610767674497
8719, SECJER , Cc1ccc(cc1)C(=O)Oc1c(cc(cc1N(=O)=O)N(=O)=O)N(=O)=O , P21/c ,1,0,1.5424934409600002,0.696174196174
8720, GEMZOP , CCN1C=C(C(=N1)C)C1=[N+]([O-])C(C)(C)C(C)(C)N1[O] , P21/c ,1,0,1.18711184974,0.682793547844
8721, NIZREU , CN(C)c1ccc(cc1)C(=O)C=C(O)c1ccc(cc1)N(=O)=O , Pbca ,1,1,1.43705081544,0.742695631107
8722, SAPYEN , CC(O)=C(C(C)=O)c1ccc(cc1)N(=O)=O , P21/c ,1,0,1.39086117493,0.70241617357
8726, MAPFOZ , COc1ccc(O)c(C=Nc2ccc(cc2)N(=O)=O)c1 , P21/n ,0,1,1.4226180055000002,0.7033890099250001
8727, DAPJOU , O=N(=O)c1cc(c(OCC2CC2)c(c1)N(=O)=O)N(=O)=O , P212121 ,0,0,1.59463204626,0.726394764675
8728, JOLNAZ , CN(C)N=N([O])c1ccc(cc1)C(N)=O , P21/c ,1,0,1.30660551424,0.674463768116
8729, NITPOL , Oc1ccc(cc1)N(=O)=O , P21/a ,0,0,1.49123869102,0.715779834201
8730, IKAGIM , CCC(COc1ccc(cc1)N(=O)=O)(COc1ccc(cc1)N(=O)=O)COc1ccc(cc1)N(=O)=O , P-1 ,1,1,1.3663681796899998,0.665007215007
8731, BIDJUT , O=NN1C2CCC(CC2)C1=O , Pnam ,0,1,1.40378036842,0.7125199446870001
8733, JATZEM , O=C(C1=C(CCC1)C1=CC=CO1)c1ccc(cc1)N(=O)=O , P21/c ,1,0,1.4583253461,0.733386849086
8734, UCIXUC , CN(CC(=O)NC(=O)OCC(N(=O)=O)(N(=O)=O)N(=O)=O)N(=O)=O , P21/c ,1,0,1.7495343648099997,0.723021096286
8735, IWUQIC , N=C1C(C(=[N+]([O-])C1(Cc1ccccc1)C#N)c1ccccc1)=C(c1ccccc1)c1ccccc1 , P212121 ,0,0,1.25066812,0.67104257359
8736, TESBEB , COC(=O)CC1C(C(c2ccccc2)C2=CN(C)c3cccc1c23)N(=O)=O , P-1 ,1,1,1.36664584572,0.707294524409
8737, XUQTUZ , CC(=O)C(C(CN(=O)=O)c1ccccc1)C(=O)c1ccccc1 , P212121 ,0,0,1.2818142510100001,0.668208637279
8738, IQOSEN , COC1CC(CN(=O)=O)C2OC(OCC2O1)c1ccccc1 , P212121 ,0,0,1.3306428671600001,0.663272527911
8739, DAVCAH , N1C=CC=C1C1=NC2=NON=C2N=C1c1ccccc1 , P21/c ,1,0,1.46679577739,0.714496452859
8740, WALLUS , O=N(=O)c1ccccc1NN=C(c1ccccn1)c1ccccn1 , P21/c ,1,0,1.47890980527,0.739161129568
8741, QUFPEO , Nc1cc(c(O)c(c1N(=O)=O)N(=O)=O)N(=O)=O , Pbca ,1,0,1.83897559659,0.756571859513
8742, OJOMIL , O=N(=O)c1ccc(cc1)C=Nc1ccccc1N=Cc1ccc(cc1)N(=O)=O , P21/n ,0,1,1.46973839419,0.7264208314899999
8743, NHANTQ , Oc1ccc(c2C(=O)c3c(O)ccc(c3C(=O)c12)N(=O)=O)N(=O)=O , P21/a ,0,1,1.71440950409,0.7412791044600001
8744, FUHROQ , CC1COC2(OC3CC4C5CCC6CC(CCC6(C)C5CCC4(C)C3C2C)OC(C)=O)C(C1)C(C)=[NH+][O-] , P212121 ,0,0,1.16145809259,0.645910471468
8745, YABFIR , CCN1c2cc(ccc2N=C1c1ccc(cc1)N=Nc1ccc(cc1)N(CCOC(C)=O)CCOC(C)=O)N(=O)=O , P-1 ,1,0,1.3413829882700001,0.708609599208
8747, ZIZJEX , COC1OC(CON(=O)=O)C(OC(C)=O)C(OC(C)=O)C1OC(C)=O , P212121 ,0,0,1.34050308451,0.6371784345920001
8749, ECIJUV , CCOC(=O)C1(C#N)C(CC(C)=O)C(C)(CCN1C)N(=O)=O , P212121 ,0,0,1.30322024378,0.6823445864740001
8750, YUFROI , O=C(NN(=O)=O)OCC(COC(=O)NN(=O)=O)(N(=O)=O)N(=O)=O , Pbca ,1,1,1.7808343551299999,0.702919335673
8751, DNPMTA , O=N(=O)N1CN2CN(C1)CN(C2)N(=O)=O , P21/c ,1,0,1.68036044162,0.752419383014
8752, YIQRUL , O=C1C(=CC(=CC(=C1N(=O)=O)c1ccccc1)c1ccccc1)c1ccccc1 , P21/n ,0,0,1.32351187442,0.681618424531
8753, EXOBDO01 , O=C(OC1CC2CC1C1C3CCC(C3)C21)c1cc(cc(c1)N(=O)=O)N(=O)=O , Pc ,0,0,1.46453307174,0.747737639117
8754, HOTWUK , CC12CC(=NO)C(=O)C3=NOC(=C13)CC1C2CCC2(C)C1CCC2(O)Cc1ccccn1 , P212121 ,0,0,1.07518245189,0.553607786949
8755, POLQIS , COc1cc(OC)c(c(c1)C1OCCCO1)C1=NOC2=C1C(=O)C(OC)(OC)C(=C2)OC , P21/c ,1,0,1.39533978046,0.696740421095
8756, IJIVIG , [O]n1cccc(NN(=O)=O)c1 , Pn ,0,0,1.61291649054,0.741330069359
8757, CETRUQ02 , CC1(C)N([O])C(=[N+]([O-])C1(C)C)c1ccc2C(=O)c3ccccc3C(=O)c2c1 , Pbca ,1,0,1.4166711657799997,0.7252643163860001
8758, MUTSAW01 , OCCN1CCNC1=CN(=O)=O , P21/n ,0,0,1.46981978818,0.723616383616
8760, YODHIJ , ON=C1Nc2ccccc2NC1=NO , Fddd ,1,0,1.56764844182,0.7406937514849999
8761, ROGDEX , COc1ccc(cc1)N=Cc1ccccc1N(=O)=O , P212121 ,0,0,1.3413961669299999,0.683497536946
8762, NTMCPO , CC1CC(C)(C)C(=O)C1N(=O)=O , P212121 ,0,0,1.19209664528,0.670561542825
8763, DELPEQ01 , CC(C)=NNc1ccccc1N(=O)=O , P21/c ,1,1,1.36301852076,0.709426361586
8764, SEDTUQ06 , NC(N)=C(N(=O)=O)N(=O)=O , P212121 ,0,0,1.82496544347,0.752727531691
8765, DELZEZ , CC1(C(C(=CC(O)(c2ccccc2)C1=O)N(=O)=O)N(=O)=O)N(=O)=O , P21/n ,0,0,1.5449779214200001,0.702003780718
8767, KENWIL , O=N(=O)c1cccc2c(ccc(c12)N(=O)=O)c1ccc(c2c1cccc2N(=O)=O)N(=O)=O , C2/c ,1,0,1.75673757243,0.725264818571
8768, HIPSII , CC1C2CN(CC32OC1(C=C3)N(=O)=O)c1ccc(C)cc1 , P21/c ,1,1,1.3612115355,0.714624593705
8770, XEWVUT , C1CCC2(OC34CCCCC3c3ccc5cnccc5c3N(O4)C2C1)N1CCOCC1 , P-1 ,1,1,1.29916642878,0.682490079365
8771, UGELEZ , O=NN1CCCc2ccc3cccnc3c12 , P21/n ,0,0,1.37835518315,0.698609878734
8772, WIGYOC01 , Oc1ccc(NC(=O)c2ccc(cc2)N(=O)=O)cc1 , P21/c ,1,1,1.49548841051,0.720282186949
8773, NIGRON , COC(=O)C12ON=C(C1C(=O)c1ccccc1C2=O)c1ccccc1 , P21/c ,1,0,1.4401137270500002,0.7107922472660001
8774, SIBTUT , COc1ccc(cc1)N1C(C(O)CN(=O)=O)C(OC(=O)c2ccc(OC)cc2)C1=O , P212121 ,0,0,1.37184264318,0.670760604354
8775, CELXEW , COC(=O)C1ON=C(C2OC(C)(C)OC2(C)C)C1C(=O)OC , Pbca ,1,0,1.31348418471,0.673172850679
8776, MAZWEQ01 , O=N(=O)c1ccc(cc1)C=NCCCCCCN=Cc1ccc(cc1)N(=O)=O , P21/c ,1,0,1.33073733488,0.697173793948
8777, POGGOH , O=C1C(=C([O-])O[N+]21CCCC2)c1ccccc1 , Pbca ,1,0,1.31368087253,0.673998981561
8779, RAKPOL , CC12CCCCC1c1ccccc1C(C2)OC(=O)c1ccc(cc1)N(=O)=O , P21/c ,1,0,1.32632331131,0.700829204166
8780, ZELVER , O=C1OC(N(C(=O)c2ccccc2)C21CC(=NO2)c1ccccc1)c1ccccc1 , P21 ,0,0,1.30627451937,0.660558069382
8781, OGEDAG , O=C(Oc1ccc(cc1)N=Nc1ccc(cc1)N(=O)=O)c1c2ccccc2cc2ccccc12 , P21/c ,1,0,1.42818586731,0.7122994652410001
8782, BUQWUF , CC(C)(C)N([O])c1ccc(cc1)C(c1ccc(cc1)N([O])C(C)(C)C)=C1C2CCC1CC2 , P-1 ,1,1,1.221177294,0.700778642937
8783, TALDUF , CC1(C)C=C(C(=O)OCC#CC#CCO)C(C)(C)N1[O] , P212121 ,0,0,1.24672301119,0.6866524582629999
8785, MEGQEU , CC1=C(ON=C1c1ccccc1)c1ccncc1 , Pnc2 ,0,0,1.30389434134,0.6896219135799999
8786, YONDUC , O=C1CCCC(=O)C1=Cc1ccccc1N(=O)=O , P21/c ,1,0,1.44263074315,0.721601261864
8787, HAYYEM , CC1(c2ccccc2C(c2ccccc12)C(N(=O)=O)(N(=O)=O)N(=O)=O)N(=O)=O , P21/n ,0,0,1.5523234272400002,0.7021772345300001
8788, APUVOY , NC(C#N)=C(N=CC=Cc1ccc(cc1)N(=O)=O)C#N , P21/c ,1,1,1.13816116619,0.5695774922119999
8789, DAFPUY , CC1(C)CC(CC(C)(C)N1O)NC(=O)c1cc2cccnc2c2ncccc12 , P21/n ,0,0,1.27979380191,0.685153797866
8790, LIKDIS , ONC(=O)C1CCCCC1 , P2/c ,1,0,1.1374192184,0.616305916306
8791, VITDAD , O=N(=O)c1ccc(cc1)N1N=C(N2CN(N=C(c3ccccc3)C12c1ccccc1)c1ccccc1)c1ccccc1 , P-1 ,1,1,1.32357162079,0.690034739454
8792, NBZOAC11 , OC(=O)c1ccc(cc1)N(=O)=O , P21/n ,0,0,1.60785403003,0.744283941865
8793, JEXVEO , COC(=O)C1=Cc2c(cccc2N(=O)=O)C(=O)O1 , P-1 ,1,1,1.59736415867,0.7342879256970001
8795, QOGQIO , CC(C)C1CCC(C)CC21N(C)C(=O)C1C3C(CCCC3=O)ON21 , P212121 ,0,0,1.2127629914,0.676697494506
8796, ISAXUV , Cc1c(N)cc(cc1N(=O)=O)N(=O)=O , P21/a ,0,0,1.50158505988,0.721540287298
8797, DAVYAA , CC(=O)C1(O)C(C)(O)C(=C(N(=O)=O)C1(C)N(=O)=O)C , P-1 ,1,1,1.4968047767200001,0.716427781389
8798, WOGNUB , CC1=NN(C(=O)C1)c1ccc(cc1N(=O)=O)N(=O)=O , P21/c ,1,1,1.525065414,0.692160790598
8799, KUSTAU , CC1=NOC(=C1C)N=Cc1ccccc1O , P-1 ,1,1,1.3067548749299998,0.6793472357989999
8800, BIKJIQ , CC(C)(C)OC(=O)N1C(CC(O)N1c1ccccc1)c1ccc(cc1)N(=O)=O , P-1 ,1,0,1.26094772375,0.653500636479
8801, ODEVEY , CC(OC(=O)c1cc(cc(c1)N(=O)=O)N(=O)=O)C1ON(Cc2ccccc2)C2C1COC2=O , P21 ,0,0,1.46816545966,0.696182412359
8802, SERROY , COC(CC1OC(=O)CC(OC(=O)c2ccc(cc2)N(=O)=O)C1(C)C)C(C)CO , P212121 ,0,0,1.30521998197,0.677845708547
8804, TULCIO , O=C1NC(=O)N(C=C1)C1=NOC2C3CC(C12)N(O3)C(=O)c1ccccc1 , Pbca ,1,0,1.43137380055,0.674271284271
8805, REYKEO , CON=[N+]([O-])C(CC(N(=O)=O)(N(=O)=O)N(=O)=O)[N+]([O-])=NOC , P21/c ,1,0,1.6629842318,0.696623838163
8806, WAJVOT , O=C1C=CC2C3CC(C4C3ON=C4c3ccccc3)C12 , P21/n ,0,0,1.35109915186,0.697463768116
8807, DUYGUA , CCCCC(CCCC)(CC(=O)NCCC[N+](C)(C)[O-])C1CCCCC1 , P-1 ,1,0,1.0979582807,0.714452324665
8808, MOAZCD , CC1=NOC2C1C1ON=C(C)C21 , P21/c ,1,0,1.38324247959,0.711849209226
8809, SUQGIV , COC(=O)c1cc2ccccc2c(NC(=O)c2cc3ccccc3c(c2OC)N(=O)=O)c1OC , Pna21 ,0,0,1.4279429942299997,0.700285878476
8810, GOHSIH , COC(=O)c1ccc(CN2C(C(C)C)C(=O)NC2=O)c(c1)N(=O)=O , P21 ,0,0,1.4017714080500001,0.7147919876729999
8811, OCHTET13 , O=N(=O)N1CN(CN(CN(C1)N(=O)=O)N(=O)=O)N(=O)=O , P21/n ,0,1,1.9617123994099999,0.810113143446
8812, KEDPOB , CC1=CN(C2CC3C(CC(O)C3O2)OC(=O)c2ccc(cc2)N(=O)=O)C(=O)NC1=O , P21 ,0,0,1.4967551859600001,0.7136657840539999
8813, QETRIQ , CCCN1N=C(C)C(=C1C1=NOC(=C1)C)N=O , P21/n ,0,0,1.31947311742,0.6884610480679999
8814, KARKIZ , CC(CC(C)(C)C(C#N)C(O)=O)=NNc1ccc(cc1N(=O)=O)N(=O)=O , P21/c ,1,0,1.3908950315600002,0.711720378387
8815, KULRUG , OCCC#CC#Cc1cccc(c1)N(=O)=O , P-1 ,1,1,1.33604600766,0.6941192982459999
8816, POZNUO , CN1C=CN=C1C(=O)N(O)c1ccccc1 , P21/c ,1,0,1.33763068206,0.6758689458689999
8817, OSIFUS , CC(C)(C)N([O])C1=NC(C)(C)C(C)(C)N1[O] , P21/c ,1,1,1.18654697375,0.6827180310330001
8818, KEJMAQ , COC(=O)C1CC2C3N1C(=O)C=C(N3c1ccccc21)c1ccc(OC(=O)c2ccc(cc2)N(=O)=O)cc1 , P212121 ,0,0,1.43453161242,0.6997387129289999
8819, FESNEW13 , COc1ccc(cc1N(=O)=O)N(=O)=O , P21/n ,0,0,1.5671765903900001,0.771088814567
8820, RIMTAI , O=C1NCCCCC1=NOCc1ccc(cc1)N(=O)=O , P21/c ,1,0,1.3618549846799999,0.619945355191
8821, FELROD , CC(C)(C)C1(CC2(C)OOC(O2)(O1)c1ccc(cc1)N(=O)=O)C(C)(C)C , P21/c ,1,1,1.2981992948899999,0.684369217552
8822, ENBILO , CCC1=C(CC)C(NC1=O)=CC1=NC(=CC2=C(CC)C(=C(N2)C(=C2NC(=O)C(=C2CC)CC)N(=O)=O)CC)C(=C1CC)CC , P-1 ,1,1,1.17782413658,0.6704066101330001
8823, KOGROO , CC(C)(ON(=O)=O)C1CC2=C(O1)C(=O)c1ccccc1C2=O , C2/c ,1,1,1.44846983212,0.6975510823219999
8824, SECMOE , CCCCCCC1=CN(N=N1)C1=CC2=NON=C2C=C1 , P-1 ,1,1,1.3153798645700001,0.689792231256
8825, CAXKAQ , CC1=C2C(=O)OC(C3=C(OC=C3)C(C)=NO)C2(C)CCC1 , P21 ,0,0,1.25429921375,0.643735224586
8826, WALWUB , C1CC2C(ON=C2C2(C1)NC2c1ccccc1)c1ccccc1 , P21/c ,1,0,1.21490274759,0.653097602677
8827, TEWJAG , Nc1c(c(N2CCCCC2)c(c(N2CCCCC2)c1N(=O)=O)N(=O)=O)N(=O)=O , P21/c ,1,0,1.45978419588,0.6966235274600001
8828, MUCCIX , O=C(C1=C2NCCN2C(C(C1)N(=O)=O)C1=CC=CO1)c1ccccc1 , C2/c ,1,0,1.42542264654,0.709868421053
8829, POQYIE , CC(C)CNC(=O)NC(=O)NN(=O)=O , Pbca ,1,0,1.39286198175,0.6780617895540001
8830, IYIYOF , COC(=O)C(Nc1ccc(cc1N(=O)=O)N(=O)=O)C(O)C(C)C , P212121 ,0,0,1.42504860768,0.690683893283
8831, WASHII , CC1(C)CCC(C)(N1[O])c1cccc(O)c1 , P21/c ,1,0,1.17463638462,0.651386313002
8832, FETFUH , CC(=NO)C(=NN)c1ccccc1 , P21 ,0,0,1.29329473253,0.6809438927089999
8833, QEDFUD , O=N(=O)C1=NN(Cc2ccccc2)C=C1 , Pna21 ,0,0,1.41707625436,0.717973762785
8834, WERVEU02 , NC(=O)NN=CC1=CC=C(O1)N(=O)=O , P21/c ,1,1,1.59170508613,0.7121507352940001
8835, SITRAQ , COc1cc(N2C=NC=N2)c(cc1N(=O)=O)N(=O)=O , P21/c ,1,0,1.5923268239700001,0.7051425438600001
8836, SEKLID , COc1ccc(NC2=C3C(=O)C(C)(c4ccccc4)N(=C3C=CC2=O)[O])cc1 , P21 ,0,0,1.36093250913,0.6927521008399999
8837, ESIRUV , O=C(N1Cc2c1cccc2c1cccc(c1)N(=O)=O)c1ccccn1 , P-1 ,1,1,1.4369209695200003,0.709457551926
8838, XOYYOA , CN1N=C2C=C(C=CC2=C1C)N(=O)=O , P-1 ,1,1,1.42744837558,0.706524706525
8839, QEBBUW , O=N(=O)c1cccc(n1)c1ccccn1 , P21/n ,0,1,1.53065181469,0.750651204282
8841, WULKOF , COc1ccc(N2C(=Nc3ccccc3C2=O)C)c(c1)N(=O)=O , P21/n ,0,1,1.4656839507700001,0.717826409256
8842, WUMDIR , COC(=O)C(C=Cc1ccc(cc1)N(=O)=O)=Cc1ccccc1 , P21/c ,1,1,1.35595266678,0.696105977356
8843, COLYAD , CC1=C(C)C(C)(N(=O)=O)C(C)(C(=O)C1(C)N(=O)=O)N(=O)=O , P21/c ,1,0,1.44247205076,0.631501434837
8844, IGOTOO , CC(=O)C1CC(CCC1(C)O)(C(=C)c1ccccc1)N(=O)=O , Pna21 ,0,1,1.23957913282,0.6670791248210001
8845, DIFVOF , CC1(C)N([O])C(=N([O])C1(C)C)C1=NN(N=C1)c1ccccc1 , P212121 ,0,0,1.2951048859,0.670038187117
8846, XAJJIE , COc1cc(N=[N+]([O-])c2cc(OC)c(OC)cc2C(=O)C(C)(C)C)c(cc1OC)C(O)=O , P-1 ,1,1,1.33223793799,0.680934755413
8847, IDITAR , NC(=O)c1c(cccc1N(=O)=O)C(O)=O , P21/c ,1,0,1.69253543766,0.7472492522059999
8850, REGCUB , CC1=NN2C(=C1)NN=C2c1cccc(c1)N(=O)=O , P-1 ,1,1,1.54514217218,0.7268140589569999
8851, VEFBUF , OC1CN2C=NC(=C2N(C1)c1ccccc1)N(=O)=O , Pbcn ,1,0,1.43133046458,0.698571135132
8853, EROHUP , COc1ccc(C=O)cc1OCc1ccc(cc1)N(=O)=O , P21/c ,1,0,1.4299615841799997,0.710063109581
8854, DUXDEH01 , O=N(=O)c1ccc(OCC#CC#CN2c3ccccc3c3ccccc23)cc1 , P212121 ,0,0,1.41519068761,0.7271060021060001
8855, PINBEW , COC(=O)C12Cc3ccccc3C(C1C)N(O2)C(C)(C)C , P-1 ,1,1,1.2062363229000002,0.660228969637
8856, HAYZIR , CCCCOC(=O)c1cc(cc(c1)N(=O)=O)N(=O)=O , P21/n ,0,0,1.41626963342,0.6838879696019999
8857, TUKBUW , O=C([N-][N+]1=C(N(N=C1c1ccccc1)c1ccc(cc1)N(=O)=O)c1ccccc1)c1ccccc1 , P21/c ,1,0,1.40404692331,0.631826387844
8858, RUPCAH , COC(=O)C1=C(C)OC(C1c1ccccc1)C1=C(C(=NO1)C)N(=O)=O , P-1 ,1,1,1.4256266974899998,0.7153162757639999
8859, DAFRAD , NC1=NON=C1N , C2/c ,1,1,1.6086873829100001,0.714321862348
8860, JELWIG , CC(=O)C1=NOC2(CC3CC=CC3ON2C1)c1ccccc1 , P21/c ,1,0,1.31301693465,0.6812490479819999
8861, XEVYII , CCCCCCCCCOc1ccc(cc1)C=Cc1ccc(cc1)N(=O)=O , P21/c ,1,1,1.18230160074,0.669404023313
8862, QALRUS , CC1CCC(CC21OOC1(CC(CCC1C)C(C)=NOCc1ccccc1)OO2)C(C)=NOCc1ccccc1 , P21 ,0,0,1.2437988119399999,0.680479574085
8863, BIMPUJ , CCCCN1c2cc3ccccc3nc2N(CCCC)c2nc3cc(ccc3c(c12)N(=O)=O)N(=O)=O , P21/n ,0,0,1.3484672710499999,0.681165751768
8864, BIFRUF , CCOC(=O)C1=C2C(CCC1C)CCC1=CC(CC1(C)C2=O)OC(=O)c1ccc(cc1)N(=O)=O , P21/c ,1,0,1.30866421919,0.6813717987960001
8865, UMUKUK , O=C1ON=C(c2ccccc2)C1=Cc1ccc2c(Cc3ccccc23)c1 , Cc ,0,0,1.3798564780200002,0.718460891505
8866, WAHPUR , CCOC(=O)C12CC=C(C)CCC1(O)C(=CC2)C(C)=NNc1ccc(cc1N(=O)=O)N(=O)=O , P-1 ,1,1,1.33452810543,0.667581131683
8868, FULNOP , CCOC(=O)C1=C(C)NC(=C(C1C1=C(ON=C1c1ccccc1)C(C)C)C(=O)OCC)C , C2/c ,1,0,1.19888475059,0.57357696567
8869, POXXIJ , CC1C2C3C(CCCC3N1Cc1ccccc1)ON2C , P212121 ,0,0,1.1726297777899999,0.6607573515999999
8872, POQQET , CC(=O)C1(CCC2(C)OOC1(C)O2)Cc1ccc(cc1)N(=O)=O , Cc ,0,0,1.3732080150200001,0.692782096675
8873, VEJVAI , CCCCCC(=O)C=C1NC(C)(C)C(C)(C)N1O , C2/c ,1,0,1.05876325885,0.63519119126
8874, QIBJEQ , CCCC(=O)OC1=CC=C(C=CC1=O)N(=O)=O , P21/a ,0,0,1.40396573529,0.693854293854
8875, LEBSER , [O]N1c2ccc(cc2C=CC1(c1ccccc1)c1ccccc1)c1ccccc1 , Pbca ,1,0,1.26239561721,0.679488933602
8876, MERMOO , Nc1c(N2C=NC=N2)c(N2C=NC=N2)c(c(N)c1N(=O)=O)N(=O)=O , P21/c ,1,0,1.66408640595,0.708929374719
8879, PAYPOV , None , Pbcm ,0,0,1.48743142063,0.710040005162
8880, SOBDIX , CC(C)=CC(=O)OC=Cc1ccc(cc1)N(=O)=O , P21/a ,0,0,1.304407828,0.685750727986
8882, ITIXUE01 , COC1=C(N=CN1)N(=O)=O , C2/c ,1,0,1.65959737351,0.7527700831020001
8883, IQOMUX , CC(=O)C1C(C(C(CC1(C)O)C1=CC=CO1)N(=O)=O)c1ccccc1 , Pn ,0,1,1.2475869933900001,0.642922824302
8884, MABBUN , CCCCC(CC)C=NC1C(O)Cc2ccc(cc12)N(=O)=O , P212121 ,0,0,1.2074056378,0.669848227753
8885, ROQNUI , CCCCN1C(=O)NC(=O)C(=Cc2cc(ccc2N2CCOCC2)N(=O)=O)C1=O , P21/n ,0,0,1.41274070227,0.706777758662
8886, HIQVEI , COC(=O)C1=C(C)NC(=O)CC1c1ccccc1N(=O)=O , P-1 ,1,1,1.3973825472499999,0.678344488689
8887, ESAYAY , CC(N1C(=O)C2C3CCC(O3)C2(C)C1=O)c1ccc(cc1)N(=O)=O , P21 ,0,0,1.3646140300100003,0.679748302699
8888, POXYAC , CC1(C)OCC(=NO1)C1COC(C)(C)O1 , P21 ,0,0,1.24331421907,0.652621393385
8889, KECTAN , COC(=O)C(O)C(Oc1c(cc(cc1N(=O)=O)N(=O)=O)N(=O)=O)C(=O)OC , P21 ,0,0,1.62873461258,0.712243228941
8890, LAYHUO , [O]N1c2ccccc2C(=Nc2ccccc2)C1(Cc1ccccc1)c1ccccc1 , P-1 ,1,1,1.24501011065,0.676448024549
8891, BANHOO01 , COc1ccc(cc1)C=C(C#N)c1ccc(cc1)N(=O)=O , Cc ,0,0,1.3731410741999999,0.708290888512
8892, XIGFOK , CN1C(=O)C2(C(=O)c3ccccc13)c1ccccc1C(=C2c1ccc(cc1)N(=O)=O)CC1(C)C(=O)CCC1=O , P21/n ,0,0,1.8134830510099997,0.720701754386