ID,name,smiles,space_group,inversion_symmetry,beta_packing,density,packing_coefficient
1846, PUQFUD , Nc1ccc(cc1N(=O)=O)C(O)=O , P21/c ,1,0,1.6356551449399999,0.747169811321
1847, VUHNAN , O=C(OC1CC2CCC(C2)C21CCCO2)c1cc(cc(c1)N(=O)=O)N(=O)=O , Pca21 ,0,0,1.4105848298399999,0.684858436064
1848, UPOJIU , COC(=O)C=COc1c(OC)cccc1C1OC2(C(C1N(=O)=O)c1ccccc1)C(=O)N(Cc1ccccc1)c1ccccc21 , P21/c ,1,0,1.34091437668,0.6794307756460001
1849, TIPNEN , CCOC(=O)CNC(=O)OCC(N(=O)=O)(N(=O)=O)N(=O)=O , P21/c ,1,0,1.59537366319,0.694248280455
1850, KAJRIY , [O]N1=NN2CCCCCC2=N1 , P212121 ,0,0,1.37979699879,0.712776226074
1851, TOYBAK , COc1ccc(cc1)N=C(C)C(=NO)C(C)=O , P212121 ,0,0,1.27131020759,0.612912772978
1853, DARQUJ , O=C1CC(N1c1ccc(cc1)N(=O)=O)c1ccccc1 , P21/n ,0,0,1.37606810369,0.694952476959
1854, COXTOA , CCOC(=O)CC1C(C)C(O)C(=N1[O])c1ccccc1 , P212121 ,0,0,1.31968089626,0.7063992826279999
1855, EMAQEQ , COc1cc(ccc1OCC#C)C=NOCC#C , C2/c ,1,0,1.2657681652600001,0.6889413616689999
1856, MIFWOO , CC1=C2C(CC(=O)NC2=NN1)c1ccc(cc1)N(=O)=O , P-1 ,1,1,1.41668285134,0.680307190856
1857, ERUSUH , Oc1cccc2c3ccccc3NC(c3cccc(c3)N(=O)=O)c12 , I41/a ,1,0,1.30087549765,0.646092257652
1858, JOLDIX , COc1ccc2C(=O)C(Nc3ccc(C=O)cc3)(OC)C(OC)(Oc2c1)c1ccc(cc1)N(=O)=O , P-1 ,1,1,1.3683608084999999,0.678932178932
1859, UPETEQ , CC1C2OC(C(C)N2C(=O)C2(C)OC2c2ccc(cc2)N(=O)=O)N1C(=O)C1(C)OC1c1ccc(cc1)N(=O)=O , P6522 ,0,0,1.36568184072,0.6719899221760001
1860, QIRCOJ , CC1(C)N([O])C(=[N+]([O-])C1(C)C)c1ccc2ccccc2c1 , P212121 ,0,0,1.25225666929,0.6760337526469999
1861, PEZGIL , CC1(C)CC(CC(C)(C)N1[O])C(=O)Oc1ccc(cc1)N=Nc1ccccc1 , P21/n ,0,0,1.24661168871,0.668328424182
1862, HUFSAC , CCC1CON(C(O1)c1ccccc1)C(N)=O , P-1 ,1,1,1.27590464509,0.666705069124
1863, TEPDID , Oc1c(cc2CCC(=O)c2c1c1ccccc1)c1ccc(cc1)N(=O)=O , P21/c ,1,0,1.39491400933,0.695982969271
1864, VEYCAD , CO[N-][N+](=O)c1ccccc1 , Pbca ,1,0,1.37124527331,0.6437129928890001
1866, DEPVOM , [O]N(=CC1=CN(N=C1c1ccccc1)c1ccccc1)c1ccccc1 , P21/c ,1,0,1.33006499912,0.7092362909450001
1867, NUPQOF , CC1=NOC(=C1C)N=Cc1c(O)ccc2ccccc12 , P21/c ,1,0,1.3805812867700002,0.7180357842499999
1870, HUCZEL , CC1(NCC(=O)N1O)c1ccccn1 , P21/c ,1,0,1.4446068009399997,0.7208504801100001
1871, TIPMIQ , OC(=O)CN(CC(N(=O)=O)(N(=O)=O)N(=O)=O)N(=O)=O , P21/c ,1,0,1.87584198069,0.7460303030300001
1872, BUMHUM , Cc1c2ccccc2nc2cccc(c12)N(=O)=O , Pbca ,1,0,1.4279172344799997,0.7217063200920001
1873, XUTYAO , CC1C(C=C)C(OC(=O)c2ccc(cc2)N(=O)=O)C2OC2C1=O , P-1 ,1,1,1.35386218345,0.6619241192409999
1874, PAVDOH , Cc1ccc(cc1)C(=O)NN=Cc1cccc(c1)N(=O)=O , Pca21 ,0,0,1.37431055915,0.6894459072429999
1875, IZISOB , O=C(c1ccccc1)C(=O)C1=C(N=C2C=CC=CN12)c1cccc(c1)N(=O)=O , P21/c ,1,0,1.4401987150400002,0.698175745337
1876, DEVWOR , O=C1NCCc2ccc3c(cccc3N(=O)=O)c12 , P21/c ,1,0,1.5330714238999998,0.753384195322
1877, HAYLUP , CCOC(=O)C1C2CC3C(CCC1C3C=C2)OC(=O)c1cc(cc(c1)N(=O)=O)N(=O)=O , C2/c ,1,0,1.38128898056,0.6738161878110001
1878, MEBGIK , Cc1ccc(cc1)C1=NOC(C1)C1=CNc2ccccc12 , P212121 ,0,0,1.23830945941,0.658552464431
1879, HUQQIU , CN1C(=O)NC(=O)C2(Cc3cc(ccc3N3CCOCC23)N(=O)=O)C1=O , P21/c ,1,1,1.5586918911200003,0.731798532221
1880, EZUFEK , CC(C)CC(CC(=O)NC1CCCCC1)ONC(=O)OC(C)(C)C , P212121 ,0,0,1.06522358912,0.602822241252
1881, HAMQIW , CCOC(=O)C1=NOC(=C1C1(C)OCC(C)(C)CO1)CC12OCCN1C(=O)c1ccccc21 , P21/n ,0,0,1.35162344764,0.691501859174
1882, TOMCOP , O=C1ON=C2COc3ccccc3C=C12 , Fdd2 ,0,0,1.4959033508700001,0.7187203530060001
1884, UHOQUE01 , CC(C)(NC=O)C(C)(C)N(=O)=O , P-1 ,1,1,1.32835246929,0.710654936461
1885, DIBFIE , Cc1cc(cc(C)c1NC(=O)c1cccc(c1)C(=O)Nc1c(C)cc(cc1C)N(=O)=O)N(=O)=O , P21/c ,1,0,1.06040882139,0.532030520087
1886, HEXXOY , COc1ccccc1NC(=O)c1cc(C)cc(NC(=O)c2cc(C)cc(c2OC)N(=O)=O)c1OC , P21/n ,0,0,1.3481769159399999,0.679851749383
1887, CTMTNA11 , O=N(=O)N1CN(CN(C1)N(=O)=O)N(=O)=O , Pbca ,1,0,1.84731479366,0.772011300747
1888, GITKOL , Cc1ccc(cc1)C1CC(=CC(CC=O)C1N(=O)=O)c1ccccc1 , P212121 ,0,0,1.297986581,0.7040808816769999
1889, OJIJOG , O=N(=O)c1ccc(NN=C2CCCCC2)c(c1)N(=O)=O , P-1 ,1,1,1.43274670854,0.693821138211
1890, CIFKEI , CC1C2C(CC3C4CCC5CC(CCC5(C)C4CC(OC(=O)c4ccc(cc4)N(=O)=O)C23C)OC(=O)c2ccc(cc2)N(=O)=O)OC21CCC(C)(C)O2 , P212121 ,0,0,1.27371929746,0.664988903142
1892, SEHKAU , N1c2ccccc2N=C1C1=C2C=CC=CC2=NO1 , C2/c ,1,0,1.45578023616,0.720648101898
1893, RIGHUK , Cc1cccnc1Cc1ccc(cc1N(=O)=O)N(=O)=O , P21/c ,1,0,1.3850274149500001,0.674421623574
1894, NEVPEK , OCCC(=O)CC(O)c1cccc(c1)N(=O)=O , P212121 ,0,0,1.44675658746,0.726916032685
1895, ANUDEU , CCN(CC)c1ccc(C=C(C#N)c2ccc(cc2)N(=O)=O)c(OCc2ccccc2)c1 , P212121 ,0,0,1.26802442371,0.6750665194750001
1896, YUCGUA , COC(=O)c1ccc(OC(=O)C(=C)C2COC(OO2)c2ccc(cc2)N(=O)=O)cc1 , Pbca ,1,0,1.4570102231200002,0.7034778695039999
1897, QABDOO , COc1ccc(cc1)C=N([O])C(COCc1ccccc1)C(C)C , P212121 ,0,0,1.22799094892,0.684110717282
1898, ZUNKEY , CC(=NO)c1ccc(cc1)N1CCOCC1 , P21/n ,0,0,1.33171665141,0.640790960452
1899, PEBVIE , CC(=O)OC1=CC23CCC(=NNc4ccc(cc4N(=O)=O)N(=O)=O)C2(C)CCC3C1(C)C , P21/n ,0,0,1.3522395759299999,0.694500145307
1900, CIGWIA , CC12NC(=O)NC(C1N(=O)=O)c1ccccc1O2 , P21/n ,0,0,1.4574415650900001,0.6790525078849999
1901, KAYTUZ , NCCNc1ccc(cc1)N(=O)=O , P21/c ,1,0,1.3564343879700003,0.7059354226019999
1902, ZEGKUU , CC(CC(=O)c1ccc(cc1)N(=O)=O)(C=O)c1ccccc1 , P21/n ,0,0,1.3814357377500002,0.775544043697
1904, GESBIP , O=N(=O)CCCCCCCCCCCCN(=O)=O , P21/n ,0,1,1.19724910919,0.669013280171
1905, LAPWUX , COc1cc(N2C=NN=N2)c(cc1N(=O)=O)N(=O)=O , Pbca ,1,0,1.6476957885899999,0.711132075472
1906, ULEZAN , CCCCCCCCCN1C(=O)Nc2cc(ccc12)N(=O)=O , P-1 ,1,1,1.30040401391,0.7086241461239999
1907, PATVIP , COC1OC2COC(C)(C)OC2C1(OC(C)=O)N=Nc1ccc(cc1)N(=O)=O , P21 ,0,0,1.3460025646899998,0.6754419925149999
1908, OCEKUE , CC1=NOC(=C1C)N=Cc1c2ccccc2cc2ccccc12 , C2/c ,1,0,1.2968034574,0.6874157989890001
1909, RETXUM , CON1C2CC3(CCN2Cc2ccccc2)COc2cccc(C1=O)c32 , P21/c ,1,0,1.27512841642,0.656715573797
1910, MOMFUR , CC(C)(C)C1=NOC(=N1)c1ccc(cc1)N1C(=O)CCC1=O , P21/c ,1,0,1.3605646246599998,0.705793798039
1911, AQETIZ , CCNC(=O)NC(=O)C(=NOC)C#N , P21/n ,0,0,1.32148681951,0.6959813172
1912, WOQXIL , ON=Cc1cc(cc(c1O)N(=O)=O)N(=O)=O , P21/c ,1,0,1.7826708314099997,0.7685445501729999
1913, LOCVAB , CN1C=NC(=C1C#N)C(N)=NO , P21/n ,0,0,1.5064197614300001,0.744056556557
1915, TELWIQ , O=C1NCCCCC1=NOCc1ccc(cc1)N(=O)=O , C2/c ,1,0,1.3585336671700001,0.6802354364929999
1916, INIDOA , OC1(CC(=NO1)c1ccccc1)c1ccccn1 , P212121 ,0,0,1.2620973462,0.646289052768
1917, YUQMAZ , Oc1ccc(cc1C(=O)Nc1ccccc1)N(=O)=O , Pc ,0,0,1.4822895046899998,0.713091397849
1918, WAWFIK , CC(=O)Nc1cc(ccc1C)N(=O)=O , P21/c ,1,1,1.38168409602,0.692060355104
1919, EDEWUA , CCC(=O)N1CC2CCC(C1)N2CC=Cc1ccc(cc1)N(=O)=O , P-1 ,1,1,1.26342558771,0.670516370029
1920, ULAWAH , CCON1C(=O)NC(C1=O)c1ccccc1 , P21/c ,1,0,1.3495648389300001,0.679755695125
1921, VEZSUO , [O]n1ccccc1c1ccccc1O , Pbca ,1,0,1.3646950017800001,0.698025581376
1922, DANREP10 , CC1(C)N(OC2CCC(=O)N2C=C)C(C)(C)c2ccccc12 , P21/c ,1,1,1.17312881873,0.649532540289
1923, VOLQEU , CC1(C)N([O])C(C)(C)c2c(ccc(c3ccncc3)c12)c1ccncc1 , Pna21 ,0,0,1.24552374564,0.683536159261
1924, YUPZUF , CN(C)c1ccc(cc1)C=NC1=C(C)C(=NO1)C , P-1 ,1,1,1.2849164231499999,0.7092002883640001
1925, GACYUF , O=N(=O)c1cnc(N2CCCCC2)c(c1)N(=O)=O , P-1 ,1,1,1.54390116896,0.743737285673
1926, HEHROD , CC1(C)N(CCN2N(c3ccc(cc3N(=O)=O)N(=O)=O)C2(C)C)N1c1ccc(cc1N(=O)=O)N(=O)=O , P21/c ,1,0,1.4896022738799999,0.7181914331039999
1927, MNPYDO09 , Cc1cn([O])ccc1N(=O)=O , P212121 ,0,0,1.54204175679,0.7340933564309999
1928, JEKQUO , O=C1N(OC2Cc3ccccc3C2ON(=O)=O)C(=O)c2ccccc12 , P21/n ,0,0,1.45298695145,0.683728448276
1929, TAYSAQ , CN1C(C(C(C1c1ccccc1)N(=O)=O)c1ccccc1)C(=O)OC(C)(C)C , P21 ,0,1,1.21362930116,0.658544384288
1930, ROMCOM , Oc1ccc(cc1C=[NH+]c1cc(ccc1[O-])N(=O)=O)N(=O)=O , P21/c ,1,0,1.5527391248299998,0.70576467803
1931, ATOKAX , O=C1NC=CC2=C(ON=C12)c1ccccc1 , P-1 ,1,1,1.4975255623500001,0.7302656546490001
1932, TUVZEP , COc1cc2CCN3C(CC(OC3c3ccc(cc3)N(=O)=O)c3ccccc3)c2cc1OC , Pbca ,1,0,1.32390940596,0.681066215508
1933, VABZED , COC1OCCC2ON=C(C12)c1ccccc1 , Pna21 ,0,0,1.3000823751100001,0.707311849631
1934, UQACEV , COC(=O)C1=Cc2cc(ccc2N1)N(=O)=O , P21/c ,1,0,1.52194302243,0.728225793241
1935, CABMID , O=N(=O)c1ccccc1NN=C(C=Cc1ccccc1)c1ccccc1 , P-1 ,1,1,1.28861187861,0.665018602728
1936, TEYPOD , O=C(OC1CCC2CCCCC12C#N)c1ccc(cc1)N(=O)=O , P21/c ,1,0,1.34912395731,0.6892280593269999
1937, UJIGIE , CC(=O)Nc1ccc(cc1)C=NNc1ccc(cc1)N(=O)=O , P21/c ,1,0,1.4143919188299998,0.71357151939
1939, DEKBUQ , CC(=O)ON1COC(CC1(C)C)c1ccccc1 , P21/c ,1,0,1.20264577052,0.6533672891910001
1940, TPIFCB , CC1(C)CC(CC(C)(C)N1[O])OC(=O)OC1CC(C)(C)N([O])C(C)(C)C1 , Pbca ,1,0,1.15959697783,0.64561108406
1941, LIXKEI , CC(=O)OC1C=CCC21CC=CC2OC(=O)c1ccc(cc1)N(=O)=O , P21/c ,1,0,1.38858622334,0.701001625485
1942, MIQSAH , COC(=O)C(OCc1ccccc1)(c1ccccc1)C1(O)C(=O)Nc2ccc(cc12)N(=O)=O , P21/n ,0,0,1.37977863407,0.6738894984110001
1943, EBAWAF , CCN(CC)C(=O)C1(CC1C=[N+]([O-])Cc1ccccc1)c1ccccc1 , P212121 ,0,0,1.1747921664,0.661843137255
1944, WAPQUA , CC(C)(C)OC(=O)NC12CC(C)(C)N(OC1=O)C(C)(C)C2 , P21/m ,0,1,1.20133486931,0.655773420479
1945, BAZQAV , CN(C)c1ccc(c(C)c1)N(=O)=O , P-1 ,1,1,1.35198704762,0.7293604651160001
1947, HISRUW01 , CCC(CC)Nc1c(cc(C)c(C)c1N(=O)=O)N(=O)=O , P-1 ,1,1,1.34224126771,0.6903361695029999
1948, PERTUB , CCOC(=O)C1CCC2CC=CC1C2C=NNc1ccc(cc1N(=O)=O)N(=O)=O , P21/c ,1,0,1.37528937494,0.690472212277
1949, PAHBEG01 , O=N(=O)c1ccc(cc1)C=NCCN=Cc1ccc(cc1)N(=O)=O , P21/n ,0,0,1.4327232748199998,0.715162688926
1950, GAGHOM , COc1ccc(cc1)N(C(CC(C)C=C)C1=CC=CO1)C(=O)c1cc(cc(c1)N(=O)=O)N(=O)=O , P-1 ,1,1,1.29897546146,0.6547396715129999
1951, OLABEI , CC1(C)N=C(N([O])C1(C)C)c1ccc(O)c(c1)C1=NC(C)(C)C(C)(C)N1[O] , Pbca ,1,0,1.25291536379,0.6876860407350001
1952, RETREP , O=N(=O)c1cccc2c1Oc1ccc3ccccc3c1C2=C1c2ccccc2Oc2ccccc12 , P21/c ,1,0,1.40177306062,0.694581458405
1953, BOWDUN , COc1ccc(cc1)C(C)N1CCC(C)(O)C(C1c1ccccc1)N(=O)=O , P212121 ,0,0,1.23281968723,0.659919333111
1954, SOSGOY , OC1(CNC(=O)C1)c1ccccc1N(=O)=O , P21/n ,0,0,1.4760928753,0.7062727059649999
1955, WINJAF , O=N(=O)c1ccc(Nc2ccc(cc2N(=O)=O)N(=O)=O)c(c1)N(=O)=O , P21/n ,0,0,1.65658921472,0.7193252222319999
1956, PUHKIN , CC(=O)OCC1(C)C(CCC2(C)C(CC(CN(=O)=O)C3=CCOC3=O)C(=O)CCC12)OC(C)=O , P21 ,0,0,1.24846197789,0.6447086827390001
1957, XEGVIO , CC(=O)OC1CCC2(C)C(CCC3C4CC=C(C(C)=NO)C4(C)CC=C23)C1 , P212121 ,0,0,1.18596150452,0.662715200658
1958, IGOYEK , COC(=O)C1=NOC(=C1C(=O)OC)C(=O)c1ccccc1O , P-1 ,1,1,1.4486589429700003,0.691317287785
1959, DIDLAE , O=C1C2C=CC(C1C1COCOCC21)c1ccccc1N(=O)=O , P-1 ,1,1,1.4650169604700003,0.734943694992
1960, WAXDUW , O1N=C2C(C=CC(=NN(c3ccccc3)c3ccccc3)C2=N1)=NN(c1ccccc1)c1ccccc1 , C2/c ,1,1,1.3543905204299997,0.7062771753370001
1961, QEVFEC , O=C1Oc2ccc(cc2NC1=CC(=O)c1ccccc1)N(=O)=O , P21/n ,0,1,1.49796495936,0.7041065482800001
1963, MUYCEO , CC1=C(O)C(=NO)c2ccccc2C1=O , Pbca ,1,0,1.45272109994,0.713795505122
1964, XORDUD , COC(=O)c1cccc(c1)c1ccc(cc1c1ccccc1)N(=O)=O , P-1 ,1,1,1.38208324467,0.71193477391
1965, ZEGFIC , CCOC(=O)C1C(C=C(NC1=NO)c1ccccc1)c1ccccc1 , C2 ,0,0,1.30854229736,0.7211624567039999
1967, VAWFUW , O=C1CC2CC(C(CC2C(O1)c1ccccc1)N(=O)=O)c1ccccc1 , Pca21 ,0,0,1.28186438796,0.666073848238
1969, FUGLIE , CC(C)N1N=C(N=C1N(=O)=O)N(=O)=O , Pbca ,1,0,1.54224737088,0.695473251029
1970, YURBAP , CC1=C(Oc2ccccc12)C(=O)NN=C(C=Cc1ccccc1)C(=NNc1ccc(cc1)N(=O)=O)N1CCCCC1 , P21/c ,1,0,1.27826000645,0.6602578386119999
1971, GESJUJ , CC1CCC2(CCCc3ccccc3C2(O)O1)N(=O)=O , P21/c ,1,0,1.35367224475,0.702818477818
1972, SEFGAL , CC12OOC(C)(O1)C(CC(O2)c1ccccc1)OC(=O)c1ccc(cc1)N(=O)=O , P-1 ,1,1,1.39105717803,0.674002897888
1973, VIBKEX , CON=C(C)C(=O)C=CC=Cc1ccccc1 , P21/c ,1,0,1.1745159944399999,0.661285714286
1974, YIDLEC , Oc1ccc(C=CN(=O)=O)cc1N(=O)=O , P21/c ,1,0,1.55356291182,0.7035263835259999
1976, KANWOL , O=N(=O)C=Cc1ccccc1 , P21/c ,1,1,1.28484804173,0.665408084748
1977, VOKKUB , COC(=O)C1(C2CCCC1C2N(=O)=O)N(=O)=O , P-1 ,1,1,1.5045001510799998,0.709979209979
1979, SAHCEL , CC1(C)N([O])C(=N([O])C1(C)C)c1ccc(OCCO)c(O)c1 , P21/c ,1,0,1.35750148582,0.7005045179170001
1980, ABUSIC , COc1ccc(CN2c3ccc(cc3C(=O)C(=C2c2ccc(C)cc2)c2cc(C)cc(C)c2)N(=O)=O)cc1 , P21/n ,0,0,1.28136281006,0.729580988118
1981, CALKIK , CC(C)C12CCC(=NO)C(C)(C1)N=C(C)O2 , P212121 ,0,0,1.1890288660200001,0.665668479326
1982, JERVUY01 , O=C1NC=C(C=C1N(=O)=O)N(=O)=O , Pna21 ,0,0,1.8157065906999998,0.7607432294390001
1983, BABBUB , O=N(=O)N=C1NCCN1 , P21/n ,0,1,1.52819009523,0.696886920143
1985, DEGBEZ , O=C(Nc1ccc(c2c(NC(=O)OCc3ccccc3)ccc(c12)N(=O)=O)N(=O)=O)OCc1ccccc1 , P21/c ,1,0,1.1822964061399999,0.849538818643
1986, TABZII , CC1=NN(C(C1)c1ccccc1O)C(=O)c1ccc(cc1)N(=O)=O , P21/n ,0,1,1.33587583657,0.6662502489450001
1987, IBANOP , CC1(C)CC(CC(C)(C)N1[O])C(=O)OCCCCCCCCCCCOc1ccc2cc(OCCCCCCCCCCCOC(=O)C3CC(C)(C)N([O])C(C)(C)C3)ccc2c1 , P21/a ,0,0,1.1246949903799999,0.657725855564
1988, LOJFUN , COc1ccc(cc1)C1C(C2N(CCc3ccccc23)C21C(=O)c1ccccc1C2=O)N(=O)=O , P-1 ,1,1,1.30731788575,0.649013157895
1989, SAGRAT , O=C(OCc1ccccc1)c1ccc(cc1)N(=O)=O , P21/n ,0,0,1.3653374334200001,0.686404992857
1990, FOVZIZ , O=C1c2ccccc2c2cccc3c2c1c1ccccc1c3N(=O)=O , P21/c ,1,1,1.51335907868,0.746113370007
1991, LIFKAO , CN1c2cccc3cccc(N(C)C1(C)c1ccccc1N(=O)=O)c23 , Pnma ,1,0,1.29071832969,0.666155710168
1992, PABPUD , CN(C)CCCNc1c2ccccc2ncc1N(=O)=O , P-1 ,1,1,1.30862809919,0.6977736549169999
1993, POQTAR , CC(C)CCCC(C)C1CCC2C3CC(=NN(=O)=O)C4(CC(CCC4(C)C3CCC12C)OC(C)=O)OC(C)=O , P212121 ,0,0,1.1776512532899999,0.65625
1994, NIMBEQ , CCOC(=O)C1=NN(c2ccc(cc2)N(=O)=O)C2(C)CC(=Nc3ccccc3N12)c1ccccc1 , C2/c ,1,0,1.37024488961,0.6868031999609999
1995, XAZMAO , OCC1ON(C(C1CO)c1ccccc1)c1ccccc1 , Pbca ,1,0,1.2985414019700001,0.6877364742100001
1997, EBIVET , CCOC(=O)C1(CCC(C)(O)C(C1c1ccccc1OC)N(=O)=O)N(=O)=O , P21 ,0,0,1.40073996114,0.7186077438490001
1998, YOTNAX , Oc1ccccc1C=NOC(=O)CCCCC(=O)ON=Cc1ccccc1O , C2/c ,1,0,1.38379854237,0.703218005952
1999, MEQMIF , O=C(OCC1C=COC=C2COCC12)c1cc(cc(c1)N(=O)=O)N(=O)=O , P21/n ,0,0,1.54481841902,0.7224987681139999
2000, VAQHUR , COC(=O)C1=C(C)OC2=C(C1c1ccccc1N(=O)=O)C(=O)OC(=C2)C , P-1 ,1,1,1.4849799227899998,0.719521024784
2001, VIHDUN , O=Nc1ccc(cc1)C(c1ccc(cc1)N=O)(c1ccc(cc1)N=O)c1ccc(cc1)N=O , I-43d ,0,0,1.4818990568900001,0.743046109789
2002, QOQPOB , COc1ccccc1C=C1C(=NC(c2ccccc2OC)C21C(=O)ON=C2c1ccccc1)c1ccccc1 , P-1 ,1,1,1.29995951918,0.67089772299
2003, ZERJOX , CC1(C)CCC23CCC4(C)C(CCC5C6(C)CC(C(=O)C(C)(C)C6CCC45C)(N(=O)=O)N(=O)=O)C2C1OC3=O , P212121 ,0,0,1.31822661079,0.706192625219
2005, ATOTUY , ON=C(C1CC1c1ccccc1)C1=CC=CO1 , P21/n ,0,0,1.25337904814,0.665719406042
2006, LAQSAZ , COC(=O)C(COc1ccccc1C=NO)=Cc1ccccc1 , P21/n ,0,0,1.2585850216299999,0.6552701407320001
2007, NBZOAO02 , OC(=O)c1ccccc1N(=O)=O , P-1 ,1,1,1.5669413858399999,0.738312447786
2008, DUCXEF , CCC(C)=NNc1ccccc1N(=O)=O , P21/c ,1,0,1.2684676489,0.666067314716
2009, XOTJOH , CC(=O)OCCN(CCOC(C)=O)c1ccc(cc1)N=Nc1ccc(cc1)N(=O)=O , P-1 ,1,1,1.3615613780700002,0.687607613197
2010, CASQOE , CC(=O)C(C)=NOCc1ccccc1CON=C(C)C(C)=O , P-1 ,1,1,1.22692925843,0.661708742694
2011, PEWYIC , CCCCCCCCOc1ccccc1C1=CC(=NO1)c1cccc(c1)C1=NOC(=C1)c1ccccc1OCCCCCCCC , Pbcn ,1,1,1.2136956670799999,0.681523467201
2012, RIBNAU , None , Pnma ,1,0,1.83301776248,0.8322378400239999
2013, BUDJIV , COc1ccc(cc1)N1CCc2ccccc2C1C(=O)N(C1CCCCC1)C(=O)c1cccc(c1)N(=O)=O , P21/c ,1,0,1.3328748566,0.692309429956
2014, MILWUA , Cc1cc(OC(=O)c2ccc(cc2)N(=O)=O)cc2CCC(C)(C)Oc12 , P21/c ,1,0,1.3485925398700003,0.693477868112
2015, WUTXEQ , O=C(Nc1ccccc1)N1OC2CCC1C=C2 , Pna21 ,0,0,1.3239321494299998,0.691162854031
2016, SEFJUK , CC1CCC2(OC1)OC1CC3C4CC=C5CC(CCC5(C)C4CCC3(C)C1C2C)OC(=O)c1ccc(cc1)N(=O)=O , P21 ,0,0,1.28907864769,0.692196874951
2017, LOLJAX02 , O=C(N1CC(C1)(N(=O)=O)N(=O)=O)C(=O)N1CC(C1)(N(=O)=O)N(=O)=O , Fdd2 ,0,1,1.74916934247,0.731149802578
2018, JOKCIX , CC1(C)CCCC(C)(C)N1OC1C(O)C(C=O)C(C(C1c1ccccc1)N(=O)=O)c1ccccc1 , P212121 ,0,0,1.18683933596,0.652962304286
2019, QEDWOO , O=N(=O)c1ccc(cc1)N1C=CC(=N1)c1ccccc1 , P21/n ,0,0,1.45087151192,0.733815576583
2020, VAZKUF , CN1C(=O)C2(N(Cc3ccccc3)OC(C(=O)N2OCc2ccccc2)c2ccccc2)c2ccccc12 , P21/n ,0,0,1.2572100637899999,0.650307692308
2021, LAGZOL , CC(C)C1=NC2=C(N1O)C(=O)c1ccccc1C2=O , Pbca ,1,0,1.34585868752,0.66970622419
2023, NACBOJ , CC1(C)c2ccccc2N(CCC(O)=O)C21Oc1ccc(cc1C=C2)N(=O)=O , P21/c ,1,0,1.3394864519299998,0.665017527285
2025, OJUKOT , CCC1CC(=NNc2ccc(cc2N(=O)=O)N(=O)=O)C2OC1(c1ccccc1)C(=C2C(=O)OC)C(=O)OC , P-1 ,1,1,1.3981055093599999,0.676900518836
2026, BEHFEC , Cc1cccc(C(=O)NC(CO)C(C)(C)C)c1N(=O)=O , P212121 ,0,0,1.2937453719,0.6916449017280001
2027, FIMBEL , [O-][N+](=NNc1ccccc1)c1ccccc1 , P21/n ,0,0,1.29915141387,0.672083648274
2028, LOXNUH , OCC(N1OCC2COc3ccccc3C12)c1ccccc1 , P212121 ,0,0,1.3669556865,0.718005133847
2029, QANSEG , CC1(C)C2CON(C2C(ON1c1ccccc1)c1ccc(cc1)N(=O)=O)c1ccccc1 , P21/c ,1,0,1.26066786191,0.644257778738
2030, CUSMUA , COC(=O)N1CC(CC2N(Cc3ccccc3)C(=O)C1N(Cc1ccccc1)C2=O)ON1C(C)(C)CCCC1(C)C , P-1 ,1,1,1.25778286129,0.675541737328
2031, YABMIY , CC1CC23OCC(N2C(=O)CC3C1CN(=O)=O)c1ccccc1 , P21 ,0,0,1.30222051124,0.6653853348300001
2032, MNIMET04 , CC1=NC=C(N1CCO)N(=O)=O , P21/c ,1,0,1.4888452622100001,0.7296903096899999
2033, JUHJAZ , None , C2/c ,1,0,1.3808206638799998,0.7675773321430001
2035, ADACIT , CC#CCC(OC(=O)c1ccc(cc1)N(=O)=O)C1(O)C(=O)OCC1(C)C=C , Pbca ,1,0,1.33293139362,0.669290735477
2036, PAWGUR , CC(C)(CC1=CNc2ccccc12)N(=O)=O , P21/n ,0,0,1.24112182159,0.656759545924
2037, CORWAJ , CC(C)C1C(N(C)C(CC1=NOC(=O)Oc1ccccc1)c1ccccc1)c1ccccc1 , P21/c ,1,1,1.18378950577,0.6376948215179999
2038, QUFFUS , OCC(O)CN1C=CC(C=C1)=CC=C1C(=O)ON=C1c1ccccc1 , P-1 ,1,0,1.4111818504,0.7321780783319999
2039, MEKJUJ , COc1ccc(NN=C2C(=C(C#N)C(=O)N(C)C2=O)C)c(c1)N(=O)=O , Pca21 ,0,0,1.50224866762,0.719937577085
2040, WULQOJ , COC1(C)OCC(OC1(C)OC)C(C)OC(=O)c1ccc(cc1)N(=O)=O , C2 ,0,0,1.34630591402,0.6790706147319999
2041, ZIYBAM , CC(CN1C(=NC=C1N(=O)=O)C)OC(=O)c1ccc(C)cc1 , P21 ,0,0,1.31135968754,0.6704594969300001
2042, YITBEJ , CC1(CCN2C(=O)c3ccccc3C12O)N(O)Cc1ccccc1 , P21/c ,1,1,1.31618537286,0.692191665165
2045, CAYVIK , CCOC(=O)C1(CCC2(C)OOC1(C)O2)Cc1ccc(cc1)N(=O)=O , P-1 ,1,1,1.3496974127399999,0.674631837596
2046, LUKFEC , OCCCCCCOc1ccc(cc1)c1ccc(cc1)N(=O)=O , P-1 ,1,1,1.28365944455,0.617346938776
2047, VETRAQ , CC(=NO)c1ccc(cc1)N=Cc1c(O)ccc2ccccc12 , P21/c ,1,0,1.34384523176,0.6999911352600001
2048, AZEJEU , CC(=O)N1c2ccccc2N=C1c1nc2ccc(cc2nc1c1ccccc1)N(=O)=O , P21/c ,1,0,1.42535614371,0.693643590435
2049, RESRAJ , Cc1ccc(cc1)C1=C(N=C(N1)c1cc(ccc1O)N(=O)=O)c1ccc(C)cc1 , P-1 ,1,1,1.33361545916,0.680478777857
2050, NETMIK , CC1(C)CCCCC1=NOc1ccc(cc1)N(=O)=O , P-1 ,1,1,1.28096914914,0.6740713316060001
2051, VENPEK , CC1(C)OC2OC(COC(=O)c3ccccc3)C(O)(CN(=O)=O)C2O1 , P21 ,0,0,1.36208010081,0.661400447276
2052, UZITAZ , CCOC(=O)C1C(N2CCC(=O)N2CC=C1C(=O)OCC)c1ccc(cc1)N(=O)=O , P21/c ,1,0,1.39146024195,0.702895292901
2053, ELIGEN , O=N(=O)OCN1N=C(C2=C1C(=NN2CON(=O)=O)N(=O)=O)N(=O)=O , P21/n ,0,0,1.8663546324200002,0.73303845002
2054, MALZOP , COc1ccc(cc1)C=Cc1c(cc(cc1N(=O)=O)N(=O)=O)N(=O)=O , P21/c ,1,1,1.55401474088,0.7282572266439999
2055, WEPWAQ , NNC(=O)c1ccccc1N(=O)=O , P212121 ,0,0,1.49599245659,0.7131330891329999
2056, ROMNIR , CCC(CCC#N)c1ccc(cc1)N=Nc1ccc(cc1)N(=O)=O , P21/c ,1,0,1.31315706528,0.68809725675
2057, SAXJIN , COc1ccc(NC(=O)C2=C(C)N(C)C=[N+]2[O-])cc1 , Pbca ,1,0,1.38052266739,0.711691337719
2058, JUVMIW , O=N(=O)C1(CC2CC1CC2(N(=O)=O)N(=O)=O)N(=O)=O , P212121 ,0,0,1.70827676507,0.717426531774
2059, NODYIO , CCCC(C1c2ccccc2C(c2ccccc12)N(=O)=O)C(C)=O , Pbca ,1,0,1.2327272307700001,0.671952123524
2060, UDAVED , CC1(C)N([O])C(=[N+]([O-])C1(C)C)C1=NC=CN1C=C , Pbca ,1,0,1.29948610952,0.685185185185
2061, POQVUO , O=N(=O)c1ccc(OCC#C)cc1 , P21/c ,1,1,1.4615619374000002,0.741122661123