ID,name,smiles,space_group,inversion_symmetry,beta_packing,density,packing_coefficient
11653, KASVOR , O=N(=O)C(CN(CC(N(=O)=O)N(=O)=O)N(=O)=O)N(=O)=O , C2/c ,1,1,1.8009269750499999,0.732229767968
11654, RRMBXZ , CC(N1OC1(c1ccccc1)c1ccccc1)c1ccccc1 , P212121 ,0,0,1.18152570128,0.661437672797
11655, PAMQAW , O=N(=O)C1(CCCCCCC2=C1C=NO2)N(=O)=O , P21/n ,0,0,1.46084852845,0.695397291646
11656, WIXCAI01 , CC(=O)NC(c1cccc(c1)N(=O)=O)c1c(O)ccc2ccccc12 , P-1 ,1,1,1.36176564588,0.687509819324
11657, KEDGOR , O=C(OC1CCC2Oc3ccccc3C(=O)C12)c1ccc(cc1)N(=O)=O , P21/c ,1,0,1.4825745949399998,0.718310786347
11659, WEYLIY , OCC1=CN(CC2=NOC(=C2)c2ccccc2)N=N1 , P-1 ,1,1,1.38748270289,0.6873515981739999
11660, WUPMAW , O=C(c1ccccc1)C1=C2C=C(C=CC2=NO1)N(=O)=O , I2/a ,0,1,1.50013191167,0.7042384845199999
11662, SEDTUQ11 , NC(N)=C(N(=O)=O)N(=O)=O , P21/n ,0,0,1.9408235593799998,0.805103668262
11663, UDEWEF , CC(=O)NC1=[N+]([O-])c2ccccc2N=N1 , P21/n ,0,0,1.54978219025,0.7415260795540001
11664, KUVKER , CC1(C)C(=N)N(N=N1[O])c1ccccc1 , P21/c ,1,0,1.33104337191,0.690716374269
11665, IXOGAD02 , O=N(=O)c1ccc(Oc2ccc(cc2)N(=O)=O)cc1 , P21/c ,1,0,1.50631452696,0.706307369525
11666, UBATUO , CC(C)(C)N1CC2CC1C1ON=C(C21)c1ccccc1 , P21/a ,0,0,1.18704174669,0.65237717747
11667, VOTBOX , CN(C)C(=O)N1OC(=CC1=O)C1CCC1 , P-1 ,1,1,1.3658262649000001,0.723551829268
11668, JOPWUG , CC(CN(=O)=O)C1N(C(N(C)C1=O)C(C)(C)C)C(=O)OC(C)(C)C , P212121 ,0,1,1.15531780181,0.6379481132079999
11669, RASYUF , CC(=O)ONc1ccc(cn1)c1ccccc1 , P21/c ,1,0,1.34114341515,0.703200549451
11670, FENLUH , CC1CCC2C(C)(C)C3CC12CCC3C=NNc1ccc(cc1N(=O)=O)N(=O)=O , P21/n ,0,0,1.32417309506,0.7324309447949999
11672, UWUJED01 , O=N(=O)C1OC(=C(C#N)C1c1ccccc1)c1ccccc1 , P-1 ,1,1,1.37279094062,0.6991770284409999
11673, KADZEU , Oc1ccccc1C(=O)Nc1ccc(cc1)N(=O)=O , Pbca ,1,0,1.46299379888,0.704846938776
11674, FIDHIL , CC1=NC=C(N1CCOc1cccc(C#N)c1C#N)N(=O)=O , Pbcn ,1,0,1.46278167046,0.718860035211
11675, VASQEL , CC1(C)C2(C)CCC1(OC2=O)C(=O)OC1=C2CCCCCCCCCC(CC1)(C2=O)N(=O)=O , P212121 ,0,0,1.2768745253899998,0.684082803486
11678, UHOQUE , CC(C)(NC=O)C(C)(C)N(=O)=O , P-1 ,1,1,1.3185171107200002,0.7156647116320001
11679, WIZCUD , COC(=O)C=CC1O[N+](=C(C1c1ccccc1)C(=O)c1ccccc1)[O-] , P21/c ,1,0,1.35736272884,0.692696025779
11680, UKEYEQ , CCC1C=C(C(=O)CC1CC#N)c1ccccc1N(=O)=O , P212121 ,0,0,1.29504524084,0.691343639419
11682, AKUZAI , CC(C)(C)OC(=O)NN(C(=O)OC(C)(C)C)C(C)(C=O)C(CN(=O)=O)c1ccccc1 , P21/c ,1,0,1.17050793186,0.613828820023
11683, HIQLAU , COc1c2ccccc2c(OC)c2C(=NO)C3C4CC(C=C4)C3c12 , P-1 ,1,1,1.3249762300599999,0.6784888888889999
11685, IHATAO , CC(C)(C)OC(=O)NC1(CN(=O)=O)C(=O)N(Cc2ccccc2)c2ccccc12 , P21 ,0,0,1.2784794937200001,0.651115543735
11686, VAXLAJ , CC(C)(C)OC(=O)Nc1ccc(cc1N(=O)=O)N(=O)=O , P21/c ,1,0,1.4447648772200001,0.689239870521
11687, VASNAF , CC1(C)C2CC3C(COC(=O)c4ccc(cc4)N(=O)=O)(C2)C13C , P-1 ,1,1,1.2819707710400001,0.67819041868
11689, LIYNUC , CC1(C)CC(=O)C2(C)ON(C1C=C2)c1ccccc1 , P21/n ,0,0,1.2044802324600001,0.666450167246
11690, KUSYEC , CC1=NOC2=C1CC1COc3ccccc3C1N2 , P21/n ,0,0,1.33821088671,0.679019809622
11692, YOJQOF , CN(C)C=NC1=C(C(c2ccc(cc2)N(=O)=O)C2=C(N)N(C)C(=O)N(C)C2=O)C(=O)N(C)C(=O)N1C , Pbca ,1,0,1.37553236139,0.672523772182
11693, POGMEF , CC(C)(C)OC(=O)C(N=C(c1ccccc1)c1ccccc1)C1CCCCC1N(=O)=O , P21/n ,0,0,1.24289669336,0.68057834425
11694, UHIPOS , CC1=NOC(=C1N(=O)=O)CC1(O)C(=O)Nc2ccccc12 , P21 ,0,0,1.48746854014,0.698187229437
11695, MUXBOX , COCOC1C2CC(OC(=O)c3cc(cc(c3)N(=O)=O)N(=O)=O)C3(CC3(C)C2CC=C1C)C(=O)OC , P21 ,0,0,1.34243060352,0.667688415316
11696, QUMYII , COC(=O)C(C)(C)NC(=O)c1cc(cc(c1)N(=O)=O)N(=O)=O , P21/c ,1,0,1.4792328429,0.6994397759100001
11698, ROTXUV , O=N(=O)c1cccc(c1)c1cnc(nc1)N1CCOCC1 , Pca21 ,0,0,1.45843013406,0.721072262739
11699, RAZVUK , O=C1CCC2CCCN3N=NC1(C23)c1ccccc1N(=O)=O , P21/c ,1,1,1.43383080609,0.7197628032350001
11700, ILADEF , CCOC(=O)C=C(C(=O)OCC)C(C)=Cc1ccc(cc1)N(=O)=O , P-1 ,1,1,1.32253773848,0.6868184955140001
11701, KORWUL , COC(=O)C1=CC(=NO1)C(=O)c1ccccc1 , P21/n ,0,0,1.41830176073,0.695407128369
11702, XOYNOQ , O=N(=O)c1ccccc1C=CC1Nc2ccccc2C2=Nc3ccccc3N12 , P21/n ,0,0,1.35039930027,0.668344612704
11703, OLIHOG , COC(=O)c1cc(OCC(C)C)c2cccc(NC(=O)c3cc(OCC(C)C)c4cccc(c4n3)N(=O)=O)c2n1 , P21/n ,0,1,1.31577577717,0.6640348504320001
11704, APOYOU , OCC1(CO)COC(N1)c1cccc(c1)N(=O)=O , Pbca ,1,0,1.4825679951700002,0.727368089074
11705, PUTNOJ , CN1C2=C(C(C3C(C2)C(=O)N(C3=O)c2ccc(cc2)N(=O)=O)c2ccccc2)c2ccccc12 , P21/n ,0,0,1.370518339,0.6847885658239999
11706, VIZZIP , NC(=O)c1ccc(cc1C(N)=O)N(=O)=O , P21/c ,1,0,1.59284840899,0.733355637337
11707, KIFSIE , CCOC(=O)C1=C(C(N(O1)C(C)(C)C)c1ccccc1)C1=C(C(=O)N(Cc2ccccc2)C1=O)C1=C(C(N(O1)C(C)(C)C)c1ccccc1)C(=O)OCC , P-1 ,1,0,1.14258057393,0.610486675873
11708, CICQUC , CC(C)(C)C1C(CC(CC(=O)OCc2ccccc2)C1N(=O)=O)C=O , P212121 ,0,0,1.24267589394,0.6737155232500001
11710, UQELOT , O=C(CC1C(=O)NC(=O)C21CCCc1cc3CCCCc3nc21)Nc1ccccc1N(=O)=O , Pna21 ,0,0,1.4416296386,0.701971399854
11711, RAHZUY , CCN1c2ccccc2c2cc(NC(=O)CCC3=NC(=NO3)c3ccc(cc3C#N)N(=O)=O)ccc12 , P-1 ,1,1,1.42249223206,0.702633891646
11712, GEDXOD , O=NN1CCN2N=NN=C12 , P21/c ,1,0,1.64674831198,0.7293869767569999
11714, ADIDUN , CCC1=NN(C)C(=C1N(=O)=O)C(=O)N1C=Nc2ccccc12 , P21/n ,0,0,1.4202784437,0.696573411408
11715, JIGBEG , OCC(O)C(O)C(O)C(O)C(O)CN(=O)=O , P21 ,0,0,1.5823856184799998,0.746805373526
11716, RIMFAU , Oc1ccc2ccccc2c1C1c2cc(ccc2Oc2ccc3ccccc3c12)N(=O)=O , P21/c ,1,0,1.4170302649200002,0.698493975904
11717, MIPHUP , CCOC(C)=NOCC(=O)ON1C(=O)CCC1=O , P-1 ,1,0,1.37097882623,0.678466279456
11718, FAFYUG , None , C2/c ,1,1,1.07700711933,0.677879387738
11719, ARADIH , CN1OC(CC1c1ccccc1)C(O)=O , Pna21 ,0,0,1.30671544769,0.681901412018
11720, GIJXEF , CCN(N=O)c1ccc2C(=CC(=O)Oc2c1)C , P21/c ,1,1,1.40745230236,0.714012338245
11721, NDZABZ , O=N(=O)c1ccc(NN=Nc2ccccc2)cc1 , P21 ,0,0,1.37773584961,0.684419485438
11725, VEWBAA , COC1OC(COC(=O)c2ccccc2)C(=O)C(OC(=O)c2ccccc2)C1N(C)O , P212121 ,0,0,1.29067286213,0.66928144139
11727, MCVXDZ , CC1=N([O])ON=C1C=CC(O)=O , P21/c ,1,0,1.49988416467,0.706547619048
11728, PEWMAF , COc1ccccc1C=CC=Cc1ccc(cc1)N(=O)=O , Pbca ,1,0,1.35004661885,0.726163967611
11729, HEZQIO , COC(=O)C1(CC2C=CCCCCN2C1=O)C(CN(=O)=O)C1(OCCO1)C=C , P21 ,0,0,1.40610971322,0.723214285714
11730, PUKZIF , CC1(O)C=CC(=O)C(=C1)C(O)c1ccc(cc1)N(=O)=O , P-1 ,1,1,1.4514624375799998,0.722799422799
11731, XEDSOP , CN(C)c1ccc(cc1C=C1C(=O)N(C)C(=O)N(C)C1=O)N(=O)=O , P-1 ,1,1,1.47046493659,0.7263210927