ID,name,smiles,space_group,inversion_symmetry,beta_packing,density,packing_coefficient
5846, NAXHUR , OCC1=NON=C1NC(=O)NCc1ccccc1 , P21/n ,0,1,1.41175552966,0.6888430268919999
5848, UJIHUS , Cc1cc(C)cc(CC2=CNC(=C2N(=O)=O)NCC#Cc2cc(C)cc(C)c2)c1 , P-1 ,1,1,1.26807553589,0.69195352215
5849, LOLFAT , O=N(=O)OC1CN(CN(C1)N(=O)=O)N(=O)=O , P21 ,0,0,1.7606888244599999,0.741069043803
5850, RUJPIW , COC(=O)C1=C(C)NC(=C(C1c1ccc(cc1)N(=O)=O)C(=O)OCc1ccccc1)C , P21/n ,0,0,1.34525682685,0.681209912536
5851, TAFKUG , O=NN1CCNC2=NON=C12 , P21/c ,1,0,2.24549212855,0.7659490740739999
5852, SUKBIJ , CC1(C)N([O])C(=N([O])C1(C)C)c1ccc(cc1)C1=N([O])C(C)(C)C(C)(C)N1[O] , P21/c ,1,0,1.26909005882,0.68347764677
5853, LERBAM , CN1CC(=Cc2ccc(C)cc2)C(=O)C2(C1)C(ON(C2c1ccc(C)cc1)c1ccccc1)c1ccc(C)cc1 , P21/c ,1,0,1.21194228813,0.668792448362
5854, IGAPAH , O=N(=O)c1ccccc1CN1Cc2cccc(CN(Cc3ccccc3N(=O)=O)c3ccccc3OCCCOc3ccccc13)n2 , P21/n ,0,0,1.3123666841600001,0.66354288499
5855, KAJSOD , CC1(C)OC2(Oc3c(C=C2)cc(c2ccccc32)N(=O)=O)c2ccccc12 , P1121/b ,0,0,1.31569316948,0.667248964803
5856, FUMBOE , CC(C)(OC(=O)c1ccc(cc1)N(=O)=O)c1ccccc1 , P21/c ,1,0,1.31370311196,0.679386985477
5857, WAZGAI , CC(C)CCCC(C)C1CCC2C3CC=C4CC(CCC4(C)C3CCC12C)OC(=O)c1ccc(cc1)N(=O)=O , P21 ,0,0,1.1866547943999999,0.674128284595
5858, GORJAA , CCN(CC)c1ccc2c(Oc3cc(ccc3C32N(N=CC=Cc2ccc(cc2)N(=O)=O)C(=O)c2ccccc32)N(CC)CC)c1 , P21/n ,0,0,1.2530678786,0.657827067494
5859, PARLIG , CC(C)N(C#CC#CC#Cc1ccc(cc1)N(=O)=O)C(C)C , P21/c ,1,0,1.23791494216,0.7009254796109999
5862, QUYKUR , Cc1cccc(N=Cc2ccc(cc2)N(=O)=O)c1C , P212121 ,0,1,1.29354493411,0.687974987975
5863, MNPHOL11 , Oc1cccc(c1)N(=O)=O , P21/n ,0,0,1.4696417995500002,0.699700470689
5865, GOGYAC , OC(C(c1ccccc1)[N+]1([O-])CCC2CCCC12)(c1ccccc1)c1ccccc1 , P212121 ,0,0,1.29166009066,0.7124228395059999
5866, YITBIM , CN1CC(CCN1CCc1ccccc1)=NO , P21/c ,1,0,1.2243637236700002,0.6773444310100001
5867, VASLOT , O=C(NN=C1CCCC2Oc3ccccc3C=C12)c1ccccc1N(=O)=O , P-1 ,1,0,1.35683685449,0.669239268458
5868, QAZDUQ , CCCCCCc1cc(C#Cc2ccc(OC(=O)C3=CC(C)(C)N([O])C3(C)C)cc2)c(CCCCCC)cc1C#Cc1ccc(OC(=O)C2=CC(C)(C)N([O])C2(C)C)cc1 , P-1 ,1,1,1.2086530384799998,0.677968428277
5869, DAPHUY , O=C(OCC1CC1)c1ccc(cc1)N(=O)=O , P21/c ,1,0,1.3851024917599999,0.7032217064540001
5870, LIGTOL , CC1(C)OC23CC=CCC2(O)CC(OC(=O)c2ccc(cc2)N(=O)=O)C1C3 , P21/c ,1,0,1.36230478118,0.694068215522
5871, ACOFOQ , CCCCCOc1cc(C#C)c(cc1OCCCCC)N(=O)=O , P-1 ,1,1,1.18092121094,0.6682884748100001
5872, XIKBEA , O=C1CCCC(C1=Cc1ccccc1N(=O)=O)C1=C(Nc2ccccc12)c1ccccc1 , P21/c ,1,0,1.30851335916,0.6880658436210001
5873, ROXKOG , CN1CCN(CC1)c1ccc(c(c1)N1CCCc2ccccc2C1)N(=O)=O , P-1 ,1,1,1.31198509313,0.70049894958
5874, EYHPIP , CC1(C)CC(O)(CC(C)(C)N1[O])C#C , P21/c ,1,0,1.14675762924,0.6672287600460001
5875, BAZKIW , Cc1ccc(cc1)N=C(C)C(=NO)C(C)=O , P212121 ,0,0,1.20545744423,0.65297923406
5876, HABMED , Cc1cccn([O])c1NN(=O)=O , P21/c ,1,1,1.45975075053,0.6885074891259999
5878, BOJTID , CC(C)N1=Cc2c(OC31C(=CC(C=C3N(=O)=O)N(=O)=O)N(=O)=O)ccc1ccccc21 , P21/c ,1,0,1.5152215556900002,0.6729836714499999
5879, MIGXUW , O=C(NC(c1ccccn1)(c1ccccn1)c1ccccn1)c1cc(cc(c1)N(=O)=O)N(=O)=O , P21/n ,0,0,1.4996589269799998,0.72576396995
5880, FESNEW02 , COc1ccc(cc1N(=O)=O)N(=O)=O , P21/n ,0,0,1.5563991613100001,0.7661092530660001
5882, JEGVOJ , CON1C(CNC(=O)OC(C)(C)C)CC(N2C(=O)c3ccccc3C2=O)C1=O , P21/c ,1,0,1.35224692454,0.6861932169220001
5883, GADYOC , Cc1cc(C)cc(c1)C(=O)N(CC(=O)NC1CCCCC1)Cc1ccc(cc1)C(=O)NO , Pbca ,1,0,1.20711584656,0.648517773742
5885, IZONAM , CCOC(=O)C1=C(O)C=C(C)C(C1c1ccccc1N(=O)=O)C(=O)OC , P21/n ,0,0,1.38064407615,0.694075946728
5886, NOMBEA01 , Cc1c(cc(cc1N(=O)=O)C(O)=O)N(=O)=O , P21/c ,1,0,1.65753369917,0.733253683791
5887, BUHLAS , CN(C)C(N(C)C)=C1C(=O)ON=C1c1ccccc1 , Pbca ,1,0,1.29608709094,0.6919795070579999
5888, GIBYAR , COC(=O)C1C(C)ON2C(COC(=O)C12)c1ccccc1 , P21 ,0,0,1.3000170826000002,0.6735535097579999
5889, KERJAV , O=N(=O)c1ccc(ON=C2CCC3COC2O3)cc1 , P212121 ,0,0,1.51527388277,0.731845841785
5890, HESPIF , COc1cccc(C=O)c1OCCOc1ccc(cc1N(=O)=O)N(=O)=O , P21/c ,1,0,1.4786262275,0.70375026189
5891, SEKJOI , None , P-421m ,0,1,1.2193977932100002,0.706349206349
5892, MAYDOH , CC(=O)CCC1(CCC(CCC(C)=O)(CC1)N(=O)=O)N(=O)=O , P21/n ,0,0,1.3329267274299998,0.693666188915
5893, MUDWEO02 , O=N(=O)c1cc(c(Nc2ccccc2)cc1Nc1ccccc1)N(=O)=O , P21/n ,0,0,1.35616467553,0.656092367305
5894, ZIZCES , CC1=C(C)C(=C(C#N)C(=O)N1)c1cccc(c1)N(=O)=O , P21/c ,1,0,1.39880339361,0.6916796243790001
5895, GOJKEX , CC1(C)Cc2c(cccc2N(=O)=O)C1=O , P21 ,0,0,1.3726387237,0.698037554281
5896, KUHMOR , CC1CCC2C(C1)C=CC(C)C2C(=O)C1=C2OC3C(O)CCC(O)(C3O)C2=CN(O)C1=O , P1 ,0,1,1.3029876529100002,0.658622757614
5898, WEPWOE , O=C(Cc1ccc(cc1)N(=O)=O)OC1CCCCCCCCC1 , P21 ,0,0,1.2671366467,0.7008952794359999
5900, ALUZUE , COc1cc(O)c2C(=O)OCc3cc(ccc3c2c1)N(=O)=O , P21/c ,1,0,1.55283989023,0.73418040293
5901, JASLEV , CC(=O)NC(N)=C(N(=O)=O)N(=O)=O , P21/c ,1,0,1.6600780697400002,0.719709989259
5903, NELLAU , CC12CCCC3(CCCCC13C)c1cc(OCc3ccc(cc3)N(=O)=O)ccc1C2 , P21/n ,0,1,1.23417080715,0.670182527025
5904, LUFMEF , CC1OCC2CC(=O)C(=C12)c1ccc(cc1)N(=O)=O , C2/c ,1,0,1.3763528546500001,0.6893787926620001
5905, UVIMIX , CC1(C)CC(O)([N+](=C1c1ccccc1)[O-])C(=O)c1ccccc1 , P21/n ,0,0,1.26038456665,0.665504011161
5906, MATCUF , CN1C(=O)N=C(N(C)c2ccc(cc2)N(=O)=O)N(C)C1=O , P21/c ,1,0,1.4944586624899998,0.719081654754
5907, MUDWAK , COc1ccccc1Nc1cc(Nc2cc(Nc3cc(Nc4cc(Nc5cc(Nc6ccccc6OC)c(cc5N(=O)=O)N(=O)=O)c(OCC(C)C)cc4OCC(C)C)c(cc3N(=O)=O)N(=O)=O)c(OCC(C)C)cc2OCC(C)C)c(cc1N(=O)=O)N(=O)=O , C2/c ,1,0,1.33798297456,0.6781550629299999
5908, RANLEA , COc1ccc(cc1)N1C(=O)ON(C1=O)c1ccccc1 , P21/n ,0,0,1.4268261297,0.699573167887
5910, XAZFOU , CCOC(=O)C1OC2(CCCCC2(C)C1=O)Nc1ccc(cc1)N(=O)=O , P-1 ,1,1,1.34863974516,0.680371977264
5911, PUKPIV , CCOc1cccc(C=NOCCCON=Cc2cccc(OCC)c2O)c1O , Fdd2 ,0,1,1.30204449424,0.682875532899
5912, YUGFEN , CC(COC(N)=O)(N(=O)=O)N(=O)=O , P21/c ,1,0,1.5942143242299998,0.693202280912
5913, LIYNUE , O=N(=O)c1ccc(cc1)C1=NC=C(O1)c1ccccc1 , P21/c ,1,0,1.46657385755,0.7240132218549999
5914, MEZXOE , CC1(C)CC(=O)C2=C(C1)OC(=C(C#N)C2c1ccccc1N(=O)=O)N , P-1 ,1,1,1.32936147075,0.667894872685
5915, XAKLIF , CN(C)CCN(Cc1c2ccccc2cc2ccccc12)c1ccc(cc1N(=O)=O)N(=O)=O , P-1 ,1,1,1.35243338947,0.6858309409890001
5917, AKAWIS , CC1(C)NC(=N([O])C1(C)C)C1=CNC=N1 , P212121 ,0,0,1.21696519516,0.653566977553
5918, QANWAE , Oc1ccc(cc1C=NC1CC1)N(=O)=O , P21/c ,1,0,1.40245716951,0.6986591390260001
5919, OCAJUA , CCCC1C(CO)C(N(O)C21C(=O)N(C)c1ccccc21)c1ccccc1 , P41212 ,0,0,0.933224396955,0.498563428293
5920, CAWWIH , CC(C)(C)OC(=O)N(c1ccccc1)c1ccc(c(Nc2ccccc2)n1)N(=O)=O , P-1 ,1,1,1.3064725850799999,0.6709971736
5921, YUXCUR , CCC(O)C(C)ON1C(C)(C)CCCC1(C)C , C2/c ,1,1,1.11813220859,0.683896999686
5923, HEWPUV , Cc1ccccc1C(N)=NO , P21/n ,0,0,1.2182098335,0.657010582011
5926, CEVBIP , CC(C)(C)N([O])c1ccc(cc1)N1C=CC=C1 , Pna21 ,0,0,1.2011605518100001,0.671368613139
5927, NAQGET , O=C1N2CCCCCCCCCCOc3ccccc3C3OC(c4ccc(cc4)N(=O)=O)C1(O3)c1ccccc21 , P21/n ,0,1,1.2694708082,0.650127954238
5928, WEYLAN , CCCC1N(O)C(=C(C#N)C1(C#N)C#N)N , P-1 ,1,1,1.2423628953299999,0.590877630122
5929, SNQUOX01 , ON=C1C(=O)C=Cc2ccccc12 , P21/c ,1,0,1.510253883,0.7545994181929999
5930, BIHVIY , COC(=O)c1cc(c(C=Cc2ccc(OC)cc2)c(c1)N(=O)=O)N(=O)=O , P21/c ,1,0,1.4427448381099999,0.699981785064
5931, SABDEG , O=N(=O)c1cccc(Oc2cnc3ccccc3n2)c1 , P21 ,0,0,1.4952050438100002,0.726676536284
5932, KAWQEF , [O]N1=C2C=C(C=CC2=NO1)C=NO , P21/c ,1,0,1.56248943709,0.7147112573100001
5933, JEXKOM , CC1=C(c2ccccc2)C(=O)C(=C(C)C1(C)O)N(=O)=O , Pna21 ,0,0,1.31051701105,0.677191131082
5934, MEQCUH , CC(=O)C(=NO)C(=O)OCc1ccccc1 , Pca21 ,0,0,1.3718275700100002,0.7050934606820001
5935, RUGQOA , O=CN1C2C3N(C4C1N(C(C(N2N(=O)=O)N3N(=O)=O)N4N(=O)=O)N(=O)=O)N(=O)=O , P212121 ,0,0,1.97710352509,0.759213009213
5937, OFEXUS , O=Nc1c(OCc2ccccc2)nc(NCc2ccccc2)nc1OCc1ccccc1 , P21/c ,1,0,1.31963777058,0.677898351648
5939, TAKSAA , COc1cccc(OC(=O)C(=Cc2ccc(cc2)N(=O)=O)c2ccccc2)c1 , Pn ,0,0,1.31440332882,0.6654614203
5940, SOMJAG , O=N(=O)C1=NC=CN1CCN(CCN1C=CN=C1N(=O)=O)CCN1C=CN=C1N(=O)=O , P21 ,0,0,1.52659455783,0.718946267966
5941, LESFOF , CC(=O)Nc1ccc(cc1N(=O)=O)N(=O)=O , P21/n ,0,0,1.6009113958599999,0.729593920051
5942, UCIYIR , CN(CC(=O)NN(=O)=O)N(=O)=O , Fdd2 ,0,0,1.72343058518,0.747415132638
5943, GEKKUE , O=N(=O)C1=CC2=[N+]([O-])C3(CCCCC3)N=C2C=C1 , Pnma ,1,1,1.4196232582100001,0.698507990961
5944, ZOKKUH , CC1CCC(C(C1)OC(=O)C1(CCCC1=NO)C1=CC=CO1)C(C)(C)c1ccccc1 , C2 ,0,0,1.18685655325,0.6516541659399999
5945, ENULAB , C1CC2C=CC1ON2c1ccccc1 , P21/c ,1,0,1.28402581405,0.6945564516130001
5946, MTNOAN10 , CN(C(C)=O)c1c(cc(cc1N(=O)=O)N(=O)=O)N(=O)=O , P21/c ,1,0,1.57616418767,0.7024621212119999
5949, PUBMUU12 , O=N(=O)N1C2C3N(C4C1N(C(C(N2N(=O)=O)N3N(=O)=O)N4N(=O)=O)N(=O)=O)N(=O)=O , P21/n ,0,0,2.08301580186,0.777648553768
5951, TUJVUR , CC(=O)C1=NN(c2ccccc2)C(=O)C(=C1)c1ccc(cc1)N(=O)=O , C2/c ,1,0,1.40787301731,0.688184313159
5952, SEDROI , O=C(Oc1ccc(cc1)N(=O)=O)C1CC2CC1c1ccccc21 , P-1 ,1,1,1.3603565833700002,0.683697089947
5953, ZORJUL , CC1(O)C(=O)C(=CC(C)(N(=O)=O)C1(C)N(=O)=O)N(=O)=O , P21/n ,0,0,1.66889116109,0.753754705766
5954, BATGIN , OCC1OC(C(O)C(O)C1O)N1C=NC=C1N(=O)=O , P212121 ,0,0,1.6503633371899997,0.7402656327339999
5955, AXEPUQ , CC(C)(C)C1=NOC(=N1)c1ccc(cc1)C#N , P21/m ,0,1,1.31090230293,0.699461849957
5956, TIBMIA , Nc1c(cc(c(N)n1[O])N(=O)=O)N(=O)=O , C2/c ,1,1,1.87780989477,0.781944049312
5957, VEVLOZ , O=N(=O)c1ccccc1NCNc1ccccc1N(=O)=O , P21/n ,0,0,1.4917641318500001,0.709850699982
5958, NBEPXP10 , O=C1c2ccccc2C2(OOC1(Cc1ccc(cc1)N(=O)=O)O2)c1ccccc1 , P21/c ,1,0,1.3781867333000002,0.6801532941940001
5959, LOZGIQ , Cc1cccc2c1nc1c(cccc1C(C)(C)C)n2[O] , Pnma ,1,1,1.29608710805,0.700324495996
5960, YAHQUV , Cc1ccc(Oc2ccc(cn2)N(=O)=O)cc1 , Pbca ,1,0,1.38264237843,0.6863446123289999
5961, SEGSEC , COC1OC(CON(=O)=O)C(ON(=O)=O)C(ON(=O)=O)C1O , P212121 ,0,0,1.6152636802200002,0.694648829431
5962, WAWQOD , COC(=O)C1(COC(C2CN12)c1ccccc1)c1ccc(cc1)N(=O)=O , P21/n ,0,0,1.3506192172799998,0.676737264673
5964, LOJBIV , CCCCCNc1ccc(cc1)N(=O)=O , P21/n ,0,1,1.2180629061700001,0.6684905403570001
5965, GALTOE , CCOC(=O)CC1CCC(C(c2ccccc2)C1(C)N(=O)=O)N(=O)=O , P21 ,0,0,1.35284691352,0.693645472895
5967, SALLOH , C1CC2CCC=CC3ON=C(C1)C23 , P21/c ,1,0,1.22518002841,0.686284528676
5968, LOKYIU , COC(=O)c1ccc(NC(=O)c2ccc(c(OCC(=O)OC(C)(C)C)c2)N(=O)=O)c(OCC(=O)OC(C)(C)C)c1 , P-1 ,1,1,1.35138950629,0.6864328383949999
5970, TAMTUW , Cc1c(cc2c(c1N(=O)=O)C(C)(C)CCC2(C)C)N(=O)=O , P21/c ,1,1,1.29646118502,0.672292977341
5971, FERFOZ , ON1N=NC(=N1)C1=NN(O)N=N1 , P21/c ,1,0,1.9524079814099997,0.75797979798
5972, QEDQEY , O=Cc1ccccc1Nc1ccc2ccc3ccccc3c2[n+]1[O-] , P21/n ,0,1,1.44148436482,0.730563855838
5973, HMORBP , O=C1OC(C(C(=O)N2CCOCC2)c2ccccc12)c1ccc(cc1)N(=O)=O , P21/c ,1,1,1.43260055732,0.647391373156
5974, ABUVOJ , CCN(CC)c1ccc(C=Nc2ccc(cc2)N(=O)=O)c(O)c1 , P21/c ,1,0,1.33418613569,0.710793593011
5975, NANGEO , CC1(C)CC(=O)C(=NO)C(=O)C1 , P21/c ,1,0,1.3472667469600001,0.6995185185189999
5976, CIWYEO , C=Cc1ccccc1C=CC=Cc1ccc(cc1)N(=O)=O , Pn ,0,0,1.29139653744,0.6966002214839999
5977, UBUJUZ , Cc1nc2NC(=O)C=Nc2cc1N(=O)=O , P21/c ,1,0,1.61161661791,0.730101569714
5978, VIGKIH , ON=C1NC(=O)c2ccccc12 , P212121 ,0,0,1.53157197028,0.736575503766
5979, ROKPIQ , O=C1OCc2ccc(cc12)N(=O)=O , Pna21 ,0,0,1.54653271917,0.712755864185
5980, TIQXEW , COC1CCC(CCCOC(=O)c2ccc(cc2)N(=O)=O)OC21CCCCO2 , P43212 ,0,0,1.2322721468,0.643252869015
5981, JEDTAN , O=C1CC2OC1C1C2ON=C1c1ccccc1 , Pna21 ,0,0,1.41979659542,0.7112403100779999
5982, JOXQUI , CC1(C)N([O])C(=N([O])C1(C)C)C=CC1=N([O])C(C)(C)C(C)(C)N1[O] , P21/c ,1,1,1.2653481468899999,0.677419354839
5983, HUTKIR , COc1ccc(c2N(CC=Cc12)C(C)=O)N(=O)=O , P21/c ,1,0,1.41513883165,0.700272515786
5984, IWUSAW , CCCCC1=[N+]([O-])C(CC(C)=O)(OC1=C(c1ccccc1)c1ccccc1)c1ccc(cc1)N(=O)=O , P-1 ,1,1,1.29486759888,0.68403270117
5985, CESYEH , O=C(OCc1ccccc1)N1OC2OC2C1c1ccccc1 , P212121 ,0,0,1.39339792757,0.714382940109
5986, UNONIU , CC1(CC(C1)C(CN1C(=O)c2ccccc2C1=O)=NO)c1ccccc1 , P21/c ,1,0,1.33569313553,0.723714309921
5987, COXMIL , OC1C(C(O)c2ccccc12)N(=O)=O , I41/a ,1,0,1.5087069325600002,0.722745454545
5988, RAMKIZ , COc1cc(ccc1N1CCOCCOCCOCCOCC1)N=Nc1ccc(cc1)N(=O)=O , P21/c ,1,0,1.4683742224399998,0.6946401521259999
5990, IMIDUF , O=N(=O)c1cccc(c1)c1nccc(n1)c1ccc2ccccc2c1 , Pca21 ,0,0,1.44395817891,0.729359756098
5991, SIYYUU , CN(OC(C)=O)C1OC(C(COC(C)=O)OC(C)=O)C(OC(C)=O)C1OC(C)=O , P212121 ,0,0,1.3106576138700001,0.675199517036
5994, WIFLUS , O=C(C=Cc1ccc(cc1)N(=O)=O)c1cccc2ccccc12 , P21/n ,0,0,1.3819267142200002,0.664905889496
5995, SORBUW , O=N(=O)c1ccc(cc1)N1C=CC=C1 , Fdd2 ,0,0,1.4294491267200002,0.7227663518009999
5996, CEPTAT , CCOC(=O)C1=C(C)NC=C1c1ccccc1N(=O)=O , Pbca ,1,0,1.36075110889,0.690116550117
5997, YOHFAE , Cc1ccc(c(C)c1)N(=O)=O , P21/c ,1,1,1.31067821476,0.7005265382989999
5998, KIPPOR , O=C(C=Cc1ccc(cc1)N(=O)=O)c1c2ccccc2cc2ccccc12 , P21/c ,1,1,1.3568079669,0.6989073426569999
5999, KENMUL , CC1(O)C(N(=O)=O)C(C)(C=C(C#N)C1=O)N(=O)=O , Pbca ,1,0,1.5771029889500001,0.730313947504
6000, GEZKII , COc1ccc(cc1)N1C=CC(=C1c1ccc(cc1)N(=O)=O)C=O , P212121 ,0,0,1.37481278583,0.685945301328
6001, UZAWOJ , O=C(CCC(N(=O)=O)(N(=O)=O)N(=O)=O)N=[N+]=[N-] , P-1 ,1,1,1.76265539187,0.7305793086839999
6003, BAPZOK , O=C(Oc1ccccc1)c1cccc(c1)N(=O)=O , P21/c ,1,0,1.38992332251,0.675367231638
6004, NITPOL01 , Oc1ccc(cc1)N(=O)=O , P21/n ,0,0,1.55223940701,0.7389532282919999
6005, XIJWUK , CC1(C)CC2=NOC(=O)c3cc(nc(C1)c23)c1ccccc1 , P-1 ,1,1,1.29117015936,0.662700511193
6008, EZOLAG , CN([O])=Cc1cc2CCc3ccc(CCc1cc2)cc3 , P21/c ,1,0,1.30007496765,0.719606404557
6009, APMCOX , ON=Cc1ccncn1 , P21/c ,1,0,1.4777387327899998,0.714323677917
6011, EROFUN , C=CCN1C(=O)N(CC2CC(=NO2)c2ccc(cc2)N(=O)=O)c2c1ccc1C(=O)c3ccccc3C(=O)c21 , P21/n ,0,0,1.43085634574,0.692080217744
6014, RUPQIC , Oc1c(cc2CCCCc2c1c1c(O)c(cc2CCCCc12)N(=O)=O)N(=O)=O , Pbca ,1,0,1.4056145984000001,0.682552300528
6015, UMAXIR , COc1ccc(OC)c(c1)C(C)=NOC(=O)c1ccc(cc1)N(=O)=O , P21/c ,1,0,1.43977637287,0.719661209225
6016, ZAFYUA , C(N1OC2OC(OOC1c1ccccc1)c1cccc3cccc2c13)c1ccccc1 , P-1 ,1,1,1.3724673992200003,0.700043091066
6018, LEQPIJ , O=N(=O)N1C2C3N(C4C(N2CC(N(=O)=O)(N(=O)=O)N(=O)=O)N(C(C1N3N(=O)=O)N4N(=O)=O)N(=O)=O)N(=O)=O , P21/n ,0,0,1.90588501902,0.731960870917
6019, YILRAM , Cc1ccc2C3ON4OC3(C)C(C(c2c1)C4(N(=O)=O)N(=O)=O)N(=O)=O , P21/c ,1,0,1.6135491964700002,0.720966065862
6020, KUXZUZ , CC(C)(C)OC(=O)CC12OC(=O)C(CC1=O)C(C2c1ccccc1)N(=O)=O , C2/c ,1,0,1.35828558448,0.678456221198
6022, IXOZAY02 , COc1cc2CCC=[N+]([O-])CCc3ccccc3c2cc1O , Pccn ,1,0,1.3535970345500001,0.7203316068860001
6023, FANJIO , CC1(C)N=C(N([O])C1(C)C)c1cccc(n1)C1=NC(C)(C)C(C)(C)N1[O] , Pbca ,1,0,1.23498507565,0.682256738988
6024, FEDXIW , CCOC(=N)C1=N([O])C(C)(C)C(C)(C)N1=O , P21/c ,1,0,1.24120132558,0.663655220673
6026, AZIQUV , COc1ccc(cc1)N1C=NC(=C1C)N(=O)=O , P212121 ,0,1,1.42777204186,0.7209968032549999
6027, SAFMEU , [O]N1=NNc2c1cc(cc2N(=O)=O)N(=O)=O , Pbca ,1,0,1.7233325909700001,0.706957589127
6028, BOWDIB , COC(=O)C(C(C)C)N1CCC(C)(O)C(C1c1ccccc1)N(=O)=O , P212121 ,0,0,1.18657579678,0.6348072925
6029, FOHQID , CC(C)(C)N(=O)=C1C=CC(=O)C(=C1)N , P21/c ,1,0,1.3116353788500001,0.7158423487019999
6030, SAJBUD , CC(C)(C(CN(=O)=O)c1ccccc1)c1ccc(cc1)N(=O)=O , P21/n ,0,1,1.37780821366,0.725300248139
6031, OGADOS , CC1(C)CCCC(C)(C)N1OC(CC1=Cc2ccccc2N1c1ncccn1)C=O , I-4 ,0,0,1.2407740729799999,0.6763255150740001
6032, SAWDUP , O=C1N(Nc2ccc(cc2)N(=O)=O)C(C2N(N=Cc3ccccc23)c2ccc(cc2)N(=O)=O)c2ccccc12 , P-1 ,1,1,1.3819837518399998,0.682355000583
6033, YILPOY , Cc1ccc2C(C(=CC(c2c1)C(N(=O)=O)(N(=O)=O)N(=O)=O)C)N(=O)=O , P-1 ,1,1,1.6159680280500002,0.736351350203
6034, ZUGPUM , O=N(=O)N1CC2(CN(CC2(C1)N(=O)=O)N(=O)=O)N(=O)=O , P21/c ,1,0,1.80771930564,0.749255178116
6035, GIJLIU , CC(C)N1OC1(c1ccccc1)c1ccccc1 , P212121 ,0,0,1.1417364459700001,0.65519760025
6036, TEHCOZ , COc1cccc(c1)C1=CC2(C(Cc3cccc(OC)c23)N(O)C1)c1cccc(OC)c1 , P-1 ,1,1,1.2703481915100001,0.664547750664
6038, FUMTOW , CC(C)OC(=O)C1=C(C)NC(=C(C1C1=CC=CC2=NON=C12)N(=O)=O)C , Cc ,0,0,1.38856216847,0.698329506023
6041, FADJAY , O=N(=O)c1ccc(NN=C2CCCC2C(=Cc2ccccc2)c2ccccc2)c(c1)N(=O)=O , P21/c ,1,1,1.30851820857,0.662522274972
6042, JADJEE , CON=C1C2(OC(N3OC(=C(C(=O)OC)C13c1ccccc1)C(=O)OC)(C(=O)OC)C(=N2)C(=O)OC)c1ccccc1 , P21/n ,0,0,1.39575354345,0.666007297257
6043, JAHPIR , O=N(=O)C1=CC=C(O1)C=NN1C=CC=N1 , Pna21 ,0,0,1.45719813194,0.683513097072
6044, HAHBEY , ON=C(Nc1ccccc1)C(=O)c1ccccc1 , P21/a ,0,0,1.2879661808299998,0.673219098484
6046, DESCOW , COC(=O)C(Cc1ccccc1)(NCc1ccccc1)C(CN(=O)=O)c1ccccc1 , P-1 ,1,1,1.29491519602,0.693161375661
6047, WILJIL , CC(C)(CNCC(C)(C)C=NO)C=NO , P42/n ,1,0,1.10775510094,0.637317784257
6048, ANAXOD , CC1(C)O[N+](=C2CCCCC2=C1)[O-] , P-1 ,1,1,1.24007479775,0.685252525253
6049, HIQTAC , COC(=O)C(Cc1ccccc1)N1C(ON=C1c1ccccc1)c1ccccc1 , P212121 ,0,0,1.23926123707,0.654380164039
6051, AMNTPY02 , Nc1ncccc1N(=O)=O , P21/n ,0,0,1.5835147189399998,0.749848304973
6054, TANHAR , O=N(=O)C1(C=C1c1ccccc1)C#N , P21/n ,0,0,1.3669869397499999,0.691342555749
6055, BAHMUS , CN1OC2CCCC3C2C1(C)C1CCCCN1C3=O , P212121 ,0,0,1.25676341433,0.69475448299
6056, LEVKEE , CC(C)(C(Cc1ccccc1)N(=O)=O)N(=O)=O , P21/n ,0,0,1.30143661646,0.670730273676
6057, GARCUZ , Cc1cc(O)ccc1N(=O)=O , P21/c ,1,1,1.4376525349200002,0.704254493728
6059, HAPQIA03 , CC1(C)N([O])C(=N([O])C1(C)C)C1=Nc2ccccc2N1 , Pbca ,1,0,1.38609011518,0.722421534782
6060, GAYMOL03 , O=C1N[N-]C(=C1[N+]#N)N(=O)=O , P21/n ,0,0,1.8106687892400002,0.731339687299
6061, PBTZBO , O=C1N=[N+](N([O-])c2ccccc12)c1ccccc1 , P21/n ,0,0,1.46341952106,0.7323919948819999
6062, ALECAW , CC1(C)CCC2OC34CC5CCC3(C(C5)N(=O)=O)C2(CC(=O)O4)C1 , P21/c ,1,0,1.3775542797799998,0.7094708096410001
6064, WIMDAX , CCOCCOc1c2Cc3cccc(CC4=C(C(=O)C(=C(Cc5cccc(Cc1ccc2)c5OCCOCC)C4(O)OCCOCC)N(=O)=O)N(=O)=O)c3OCCOCC , P21/c ,1,0,1.31050053095,0.6662962962960001
6066, DOPLOL , NC(=O)c1cc(c(N)c(c1)N(=O)=O)N(=O)=O , P21/n ,0,0,1.7755354125799998,0.7734353460160001
6067, ALUJUO , CC1(C)C2=CC=C(N2)C(C)(C)C2=CC=C(N2)C(C)(C)C2=C(NC(=C2)C(C)(C)C2=CC=C1N2)N=Nc1ccc(cc1)N(=O)=O , P-1 ,1,1,1.21311155713,0.650350318906
6068, GAFNUW , CC(=O)OC1CC2CC1c1cc([n+]([O-])cc21)N(=O)=O , P21/c ,1,0,1.51282390657,0.730957102094
6069, TECLUI , ON1C(=O)c2ccccc2C1(c1ccccc1)c1ccccc1 , P-1 ,1,1,1.32323465094,0.6938775510199999
6071, ERISED , CCOC(=O)C1(CCC(CC1)OC)OC(=O)c1ccc(cc1)N(=O)=O , P21/c ,1,0,1.33704759762,0.678464652965
6073, EKAQOY , O=N(=O)c1cc(nc(c1)N1C=CC=N1)N1C=CC=N1 , C2/c ,1,1,1.51509099138,0.7138187371420001
6075, WUDRUK , O=C1CCCCC1C(C1C(=O)ON=C1c1ccccc1)c1ccccc1 , P-1 ,1,1,1.322215411,0.6924844011679999
6076, PALTAZ , CCOC(=O)C(OC(=O)c1ccc(cc1)N(=O)=O)C(=Cc1ccccc1)N(=O)=O , P21/a ,0,0,1.40082051551,0.678316079392
6077, WEJGEA , CC1(C)N([O])C(=N([O])C1(C)C)c1ccc(cn1)C#Cc1ccc(nc1)C1=N([O])C(C)(C)C(C)(C)N1[O] , P21/c ,1,1,1.2827715021700001,0.66723950688
6078, IDEFOP , COc1ccc2OCC3CON(C)C3(C)c2c1 , P21/c ,1,0,1.3251178133200001,0.6937297931569999
6080, GONYEN , Cc1cc(C(C)=NO)c(O)c(c1)C(C)=NO , P-1 ,1,1,1.33125737532,0.684555754323
6081, REJRIK , O=N(=O)C(CNC1=NON=C1C1=NOC(=NO1)C1=NON=C1NCC(N(=O)=O)(N(=O)=O)N(=O)=O)(N(=O)=O)N(=O)=O , P21/n ,0,0,1.94239574317,0.7626563493009999
6082, NUQZIJ , Nc1ccc(cc1[NH+]=Cc1c([O-])ccc2ccccc12)N(=O)=O , P21/c ,1,0,1.52772474229,0.7544826967899999
6083, MNTBZA11 , Cc1cc(cc(C)c1N(=O)=O)C(O)=O , P21/c ,1,0,1.8765769546700002,0.735729847495
6085, FUXNAN01 , CNc1ccc(cc1)N(=O)=O , P21/n ,0,0,1.4187166391,0.7209100529100001
6086, HESJIZ , CN1CC(C(N(=O)=O)C21C(=O)Nc1ccccc21)c1ccccc1 , P21/c ,1,0,1.30882764991,0.6599715909089999
6087, CUZWAW , CC(OC(=O)c1ccc(cc1)N(=O)=O)C1=CCC2C1C2(C)C , P21 ,0,1,1.24861007959,0.651263437107
6088, EYUFIN , O=NN(CCCON(=O)=O)CN1C(=O)CCC1=O , P21 ,0,0,1.7976420340500001,0.7185235507250001