ID,name,smiles,space_group,inversion_symmetry,beta_packing,density,packing_coefficient
4168, ITOHAC , CON1C(=O)c2ccccc2C1=Cc1ccccc1 , P21/c ,1,0,1.34138370074,0.7015617191399999
4169, FUVHIO , CC1CC(=C(C)CC1(C)COC(=O)c1cc(cc(c1)N(=O)=O)N(=O)=O)C , P21/c ,1,0,1.33356198487,0.6780928014480001
4170, BOBMUB , CC1C2N(OC31C(=O)N(C)c1ccccc31)C(COC2=O)c1ccccc1 , P212121 ,0,0,1.3777689393399999,0.703967464349
4173, MULTAQ , CCOC(=O)CC1CCC(C(C(=O)OCC)C21C(=O)N(C(=O)OC(C)(C)C)c1ccccc21)N(=O)=O , Pna21 ,0,0,1.2694074085,0.6432844324170001
4174, DAHKEC , CC(C)CC(NC(=O)OCc1ccccc1)C(=O)NOC(Cc1ccccc1)C(=O)OC(C)(C)C , P212121 ,0,0,1.17827437339,0.635768860209
4175, CUKCAM19 , OC(=O)c1cc(cc(c1)N(=O)=O)N(=O)=O , C2/c ,1,0,1.72873974181,0.7538501720190001
4176, FUJXEO01 , NNC(N)=C(N(=O)=O)N(=O)=O , Pnma ,1,0,1.8667557094599998,0.7822063689000001
4178, HOWSOD , O=C1C=CC2(C=C1)C(C(=O)N2Cc1ccc(cc1)N(=O)=O)C(=O)c1ccccc1 , P-1 ,1,1,1.4500942926700002,0.7227372858519999
4179, VAXKUC , CC(C)(C)OC(=O)Nc1cc(NC(=O)OC(C)(C)C)c(c(NC(=O)OC(C)(C)C)c1N(=O)=O)N(=O)=O , Pbca ,1,0,1.2620004792,0.627806213821
4181, SELHEY , COC(=O)C1(CC2CON3OC(CC23C1C1CCCCC1)C(=O)OC(C)(C)C)C(=O)OC , Pbca ,1,0,1.26850899783,0.6628269285239999
4182, VOSVUW , CC(N1C=[N+]([O-])C(=C1C)C)c1ccccc1 , P21 ,0,0,1.25140097054,0.699858429858
4184, TIPMUC , O=C(CN(CC(N(=O)=O)(N(=O)=O)N(=O)=O)N(=O)=O)N=[N+]=[N-] , P21/n ,0,0,1.8356945263599997,0.7282361111110001
4185, VAZBUV , NN1N=NC(=N1)N(=O)=O , Pna21 ,0,0,1.79017169926,0.732966168371
4186, IJESUL01 , CN(C)C(C)=NC(N(C)C)=C(C#N)N(=O)=O , P21/c ,1,0,1.27034618235,0.672497396995
4187, BAFGUL , Oc1ccccc1C=NNc1ccc(cc1N(=O)=O)N(=O)=O , P21/n ,0,0,1.58633118662,0.7400377855670001
4188, WAHQEC , CC1(C)CC(CC(C)(C)N1[O])C(=O)OCCCCCCCCCCCOc1ccc(cc1)N=Nc1ccccc1 , P21/n ,0,0,1.1349867734399999,0.651109513539
4190, RIXWUR , CCOC(=O)C1=NOC2(C1)C(c1ccccc1N(=O)=O)C(=C(C)NC2=O)C(=O)OCC , P-1 ,1,1,1.36851942117,0.657419159033
4191, FEPBIN , ON=C(c1ccncc1)c1ccccn1 , Pnma ,1,1,1.2848647557200001,0.649804275821
4192, DUXTIZ , ONC(=O)C(=O)NO , P21/n ,0,0,1.8509679185900003,0.770301783265
4193, SAYVEV01 , CC(=O)C1=CN(Cc2ccccc2)C=C(C1c1ccc(cc1)N(=O)=O)C(C)=O , P21/c ,1,0,1.3539867866600002,0.705843870916
4194, XIDKIF , CC(C)OC1=CC=CC2=CC(=CN12)c1ccc(cc1)N(=O)=O , P21/c ,1,0,1.32462286685,0.689637399951
4196, WACVEC , CC1(C)N(=C(N2C=CC=C2)N(=O)C1(C)C)[O] , P21/n ,0,0,1.2578911791299998,0.6764702051450001
4197, PAPFES , O=C1N(OC2CCCCCCC2ON2C(=O)c3ccccc3C2=O)C(=O)c2ccccc12 , Pn ,0,0,1.42003770657,0.716475095785
4198, YIJBUO , CC1CCC(C(C)C)C2(C1)OC(=O)C1(OC1c1ccc(cc1)N(=O)=O)C(=O)O2 , P1 ,0,1,1.3104346765100001,0.606680911681
4199, NIRJEE06 , Cc1cccc(C=NO)c1O , P21/c ,1,0,1.68670999736,0.866345356551
4202, XERSOD , ON(c1ccccc1)C(=O)c1ccccc1 , Fdd2 ,0,0,1.3099077118,0.689439289269
4203, JUVMIW01 , O=N(=O)C1(CC2CC1CC2(N(=O)=O)N(=O)=O)N(=O)=O , P212121 ,0,0,1.71302752833,0.7258865092919999
4204, NOHTAZ , CC1N(C(C)N(C(C)N1N(=O)=O)N(=O)=O)N(=O)=O , P212121 ,0,0,1.5802531522299998,0.717936246105
4205, OMEVEH , C[N+]([O-])=C1C(=O)C=CC2=NOC=C12 , P21 ,0,0,1.5461978426499998,0.7285083047300001
4206, VOBPEH , Cc1ccc(cc1)c1n[n+]([O-])nc(c2ccc(C)cc2)c1c1ccc(C)cc1 , P1 ,0,1,1.22185090044,0.658642747879
4208, QARHEZ , CCCN1C2c3ccccc3N(C)C(=O)C12N(=O)=O , P21/c ,1,0,1.3280849455200001,0.678243871513
4209, UBOLAA , CCOc1cccc2C(C3=NOCC3COc12)C1=C(C)N(C(=O)OC(C)(C)C)c2ccccc12 , P21/n ,0,0,1.27515950031,0.667259763112
4210, POVLAP , NC(=NO)C1=NON=C1C(N)=NO , C2/c ,1,1,1.6673959372,0.720146520147
4211, PAMHIV , O=C(OCC1OC2(CCCCO2)C2(OCC1O2)c1ccccc1)c1ccc(cc1)N(=O)=O , C2/c ,1,0,1.44069364982,0.706955642227
4212, ASAYEZ , Oc1c(cccc1N(=O)=O)N1C(=O)Oc2c(cccc2N(=O)=O)C1=O , P21/a ,0,0,1.68346966491,0.7280525846699999
4213, PAXJOO , O=N(=O)c1cccc2ccc(nc12)C#N , Pnma ,1,1,1.4735434406099999,0.6953242835600001
4214, ZEBXIN , CC(=O)OCC(OC(C)=O)C(OC(C)=O)C(OC(C)=O)C(OC(C)=O)C1C(N(=O)=O)C2(C)C(=O)C1(c1ccccc1)C(=C2c1ccccc1)c1ccccc1 , P21 ,0,0,1.29868274939,0.68374871316
4215, WEVCIK , CC1(C)OC2OC3C(CC4CON(Cc5ccccc5)C34)C2O1 , P212121 ,0,0,1.29886652872,0.6825074857529999
4216, FIFPOZ , COc1ccc(cc1)C(C(O)C(O)COC(=O)c1ccc(cc1)N(=O)=O)N1C(=O)c2ccccc2C1=O , P43212 ,0,0,1.40978584445,0.642319412374
4217, KUVKER10 , CC1(C)C(=N)N(N=N1[O])c1ccccc1 , P21/c ,1,0,1.33104337191,0.690716374269
4218, UBUPAI , CCOC(=O)C12CCCCC1(O)C(CC2)C(C)=NNc1ccc(cc1N(=O)=O)N(=O)=O , P-1 ,1,1,1.3431203656400001,0.6649372586869999
4219, QETTOB , O=N(=O)C1=NNC(=N1)C1=NNN=C1N(=O)=O , Pca21 ,0,0,1.8712023529400004,0.731506588649
4220, PIVKEL , CCCCOc1ccc(cc1)C1(C)CCC(C)(N1[O])c1ccc(cc1)C(O)=O , P21/a ,0,0,1.25983929513,0.692748120936
4221, ENARAO , CC1(C)N=C(N([O])C1(C)C)c1ccc2cc3ccc(cc3cc2c1)C1=NC(C)(C)C(C)(C)N1[O] , I-4 ,0,0,1.2091121769600002,0.691639891251
4222, VOHLEK , CN(C)c1ccc(C)cc1C(=NO)c1ccccc1 , R-3 ,1,0,1.1772974814100001,0.661911703457
4224, CEDWIT , COc1ccc(cc1)C1C(=NOC21CC(c1ccccc1C2=O)C(C)(C)C)c1ccc(C)cc1 , P21/c ,1,0,1.23858678726,0.672817460317
4225, MIMXOW01 , O=C(CN(=O)=O)c1ccccc1 , P21 ,0,1,1.43991712444,0.721611505122
4226, WIKYOE , CC1C(C)(C)c2cc(c(C)c(c2C1(C)C)N(=O)=O)N(=O)=O , P21/n ,0,0,1.2636812074500001,0.6886400322840001
4227, HUDDAL , CC1CCC2(CO)CCCCC2N1O , P212121 ,0,0,1.22157514866,0.698952841875
4228, GABBIW , CC(C1OCCCO1)C1CCCC1(CCC#N)N(=O)=O , P21/c ,1,0,1.26981652241,0.6887757253710001
4229, YIZDAM , CC1=C(C)C2(C)ON3OC2(C)C(C1C3(N(=O)=O)N(=O)=O)N(=O)=O , P-1 ,1,1,1.64058997744,0.730050969251
4230, VICREE , [NH3+]CC(=O)[N-]O , P21/c ,1,0,1.59667057046,0.777378671775
4231, FUJRUX , CCCC1C(CC)C(ON1c1ccccc1)N(O)c1ccccc1 , P21/n ,0,0,1.19356596437,0.667025659436
4232, CEYDUF , O=N(=O)C(CC(N(=O)=O)(N(=O)=O)N(=O)=O)(CC(N(=O)=O)(N(=O)=O)N(=O)=O)N(=O)=O , P1121/a ,0,1,1.9401634316299998,0.743710097446
4233, MEKKAQ , CCN1C(=O)C(=NNc2ccc(OC)cc2N(=O)=O)C(=C(C#N)C1=O)C , P21/c ,1,0,1.44780611958,0.702553748772
4234, HAMTIZ01 , CC(=O)Nc1cc(c(cc1C)N(=O)=O)N(=O)=O , P21/n ,0,0,1.52787999886,0.7183068783069999
4235, ISAYEG , Cc1c(NO)cc(cc1N(=O)=O)N(=O)=O , P21/c ,1,0,1.62586327601,0.734258084971
4236, SEYPEU , CN(C)c1cccc2ccc(C#Cc3ccc(cc3)N(=O)=O)c(N(C)C)c12 , P21/c ,1,0,1.2699440978899998,0.681881930855
4237, USUMEB , Cc1ccc(cc1)C(=O)C=C1C(=C2NCCCN2C1(O)c1ccc(C)cc1)N(=O)=O , P-1 ,1,1,1.2648407869299998,0.6440028188870001
4241, XIDQOS , CC(CNC(=O)CON=C(C)CNC(=O)OCc1ccccc1)=NOCC(N)=O , P21/c ,1,0,1.3702960812399998,0.7086756878980001
4242, BOWHUR , CC1(O)CCN(Cc2ccccc2)C(C1N(=O)=O)c1ccccc1 , P-1 ,1,1,1.27351546944,0.679278416347
4243, SENMII , COC(=O)C1=C(N)Oc2c(ccc3ccccc23)C1c1cccc(c1)N(=O)=O , P-1 ,1,1,1.34002561515,0.650682756431
4244, KIJNIA , CC1(C=CC(C)(C(C1ON(=O)=O)N(=O)=O)N(=O)=O)N(=O)=O , P21/n ,0,1,1.69884107648,0.744974681602
4246, BANHOO03 , COc1ccc(cc1)C=C(C#N)c1ccc(cc1)N(=O)=O , P21/n ,0,1,1.3569386894,0.7003024193549999
4247, MCNBZP10 , COC(=O)c1ccc(C(=O)c2c(C)cc(C)cc2C)c(c1)N(=O)=O , P-1 ,1,1,1.35092408694,0.690614727153
4248, GEGGAD , CC(C)(C)ON1CC2(C)CC2(CC1=O)c1ccccc1 , P21/c ,1,1,1.19770656812,0.6897115603
4249, OJAREW , COC12C3OC3CN1c1ccc(cc1C2=O)N(=O)=O , P21/c ,1,0,1.48897714856,0.6842105263160001
4251, BALYAR , CC1=CC(=C(C(C)=NNc2ccc(cc2)N(=O)=O)C(=O)O1)O , P21/n ,0,0,1.4599114450200001,0.702500560664
4254, QOHBEV01 , CC1(CCC2(CCCCC2)N1[O])c1ccc(O)cc1 , Pbca ,1,0,1.2057246798899999,0.676774725275
4257, ILOFOG , CN(CN1N=C(N=C1N(=O)=O)N(=O)=O)N(=O)=O , Cc ,0,0,1.7777825054499998,0.730022321429
4259, QOQSUM , COC(=O)C1(CC(c2ccc(OC)cc2)C2=C(C1CN(=O)=O)N(C)c1ccccc21)C(=O)OC , P21/n ,0,0,1.3886396198500002,0.6991170690999999
4260, CYPYRO01 , [O]n1ccc(cc1)C#N , P21/c ,1,0,1.43908859141,0.7243575724439999
4261, MOPQUF , O=C1C2CC3=C(Nc4ccccc34)C(N2C(=O)C2CCCN12)c1ccc(cc1)N(=O)=O , P212121 ,0,0,1.3904073391299998,0.682394609809
4262, BIGCEZ , CC(=NO)C(=O)NCCNC(=O)C(C)=NO , P21/c ,1,1,1.3893697318,0.693825814366
4263, MUBHEX , O=C(Nc1ccccc1N(=O)=O)c1ccccc1 , P21/n ,0,0,1.4622727584900002,0.7297160520839999
4264, DUMPAC , CN(CC1(COC1)CN(C)N(=O)=O)N(=O)=O , P21/c ,1,1,1.4442020319600002,0.6985204154219999
4265, BUGKOE , O=N(=O)NN1C=C(N=C1N(=O)=O)N(=O)=O , P212121 ,0,0,1.80410158949,0.7066293183939999
4267, BURFIF , OC1CC(=O)N(Cc2ccccc2)C1NC(=O)c1ccc(cc1)N(=O)=O , P212121 ,0,0,1.40016830215,0.688185769847
4268, WUSHIB , CC(C)(C)C(=O)C1=NO[N+](=C1C(=NO)C(C)(C)C)[O-] , P21/c ,1,0,1.2294218223,0.649878329918
4269, KASNEX , COC(=O)C12CC(C(C)C)C3CC(C13)C(C=C2)=NNc1ccc(cc1N(=O)=O)N(=O)=O , P21/a ,0,0,1.35652903513,0.675823801743
4270, EVOQUC , COC(=O)C12COc3ccccc3C1N(OC2c1ccc(cc1)C(C)C)c1ccccc1 , P-1 ,1,1,1.23620193419,0.6545750494129999
4271, JOXHOV , CC(=O)N(Cc1ccccc1)[N+]([O-])=NOCc1ccccc1 , P-1 ,1,1,1.29982855553,0.674433797909
4272, JESJIB , CC1=NON=C1C(=O)OCC(N(=O)=O)(N(=O)=O)N(=O)=O , Pbca ,1,0,1.7630843673700003,0.724734397148
4273, MUDDIZ , COC(=O)C1CC(C(NC(C)=O)C2OC(C)(C)OC2C2COC(C)(C)O2)N(O1)C1OC(C2COC(C)(C)O2)C2OC(C)(C)OC12 , P212121 ,0,0,1.21744519656,0.621344275668
4274, DOHCOS , Cc1c(c(C)c(c(c1N(=O)=O)C(C)(C)C)N(=O)=O)N(=O)=O , P21/a ,0,1,1.38430075609,0.683089624579
4276, WUTCOE , CC1(C)CC(=O)C2=C(C1)OC(=NO)C2c1ccccc1 , P21/c ,1,0,1.32692423238,0.700680272109
4277, KEHYAZ , [O]N1=C(C=NO)C(=NO1)C=NO , P21/n ,0,1,1.7442140007,0.749401307912
4278, OGERAW , CN1C(=O)C2(CCOC(=O)C2(CC=C)c2ccccc2N(=O)=O)c2ccccc12 , P21/c ,1,0,1.4071613292299998,0.714352105429
4279, FADTOW , CC(C)(C)C(=O)N1N=Cc2ccc(cc12)N(=O)=O , P21/m ,0,1,1.32240787676,0.656143734457
4281, WERPUE , OCCn1c(C=Cc2ccccc2)ncc1N(=O)=O , P21/c ,1,0,1.3745210380700001,0.691839506173
4282, HIFXAX , CON=C(c1ccccc1)c1ccc(OC)cc1 , P212121 ,0,0,1.29553379381,0.708263973316
4285, MAYZIW , COC1(C)OC(C2CCCCC2N(=O)=O)C(=O)OC1(C)OC , P21/c ,1,0,1.3236772070799998,0.677838464085
4286, RUJVEZ , COC(=O)C1=C(N(C(C=Cc2ccccc2)C(C#N)(C1c1ccc(cc1)N(=O)=O)C(=O)C(C)(C)C)c1ccc(C)cc1)C(=O)OC , P21/c ,1,0,1.0986246133,0.572085818943
4287, USIZEC , CN1C=C2C=CC(=CC2=N1)N(=O)=O , P21/c ,1,0,1.53262182841,0.7440732979989999
4288, DHBFZO , CC1(C)CC(=NO)C2=NON=C2C1 , P21/n ,0,0,1.33168091199,0.6795413707539999
4289, VORPIB01 , CCOC1OC(COC(C)=O)C(OC(C)=O)C(OC(C)=O)C1=NO , P212121 ,0,0,1.3972606077,0.6988375350139999
4290, FUPWES , CCOC(=O)C1CC2=C(Nc3ccccc23)C2C(CON12)C(=O)OC , P212121 ,0,0,1.32412531333,0.686111111111
4291, LOJNOO , O=C1OCCC21NC(C(C2c1ccccc1)N(=O)=O)c1ccccc1 , P21/c ,1,0,1.3682937944999998,0.696629213483
4292, IWEGUM , CCCCCCCOc1ccc(cc1)C1=NOC(=C1)c1ccc(cc1)C#N , P-1 ,1,1,1.195044528,0.666860447327
4293, DNTNAP01 , O=N(=O)c1cccc2cccc(c12)N(=O)=O , P212121 ,0,0,1.57898517699,0.7525232835169999
4296, PUBMUU01 , O=N(=O)N1C2C3N(C1C1N(C(C(N3N(=O)=O)N1N(=O)=O)N2N(=O)=O)N(=O)=O)N(=O)=O , Pb21a ,0,0,1.9853544485799999,0.749399914049
4297, RUJSEV , O=N(=O)c1ccccc1OCCCCOc1ccccc1N(=O)=O , P21/c ,1,0,1.4213890989700002,0.7034281957359999
4298, RAPLAY , Oc1ccc(c(C=Nc2cccc3ccccc23)c1)N(=O)=O , P21/c ,1,0,1.40274024092,0.6935645322740001
4299, MOVCAC , O=N(=O)c1ccc(cc1)C1CC(CCO1)c1ccccc1 , P21/c ,1,0,1.27020176382,0.668000646778
4300, JUCPAA , None , C2/c ,1,0,1.85092619942,0.74012355457
4301, FEFNAH , OCC1=C2COc3ccccc3C2=NO1 , P21/c ,1,0,1.49271168345,0.737697676473
4303, IQEGAO , None , C2/c ,1,0,2.63441881489,0.69993333872
4304, UPAJOL , Cc1cc(C)c(c(C)c1)C1(C)CC(C1)C(CN1CCOCC1)=NO , P21/c ,1,0,1.13103261854,0.639943389943
4305, HEXQAD , CC(=O)C(O)C(O)c1ccc(cc1)N(=O)=O , P212121 ,0,0,1.42094581697,0.7000539799250001
4306, JEWGUQ , CCCC(C=C)N1OC(=O)C(=C1c1ccccc1)c1ccccc1 , P212121 ,0,0,1.22285302942,0.680075282885
4307, LOCDIR , CC(=NOCCCON=C(C)c1ccccc1O)c1ccccc1O , Pba2 ,0,1,1.30339041544,0.687821796339
4308, HASFEM , CNC(N(C)C(=O)c1ccccc1)=C(C#N)N(=O)=O , P-1 ,1,1,1.3762221942700001,0.691983315239
4309, ROSHIQ , CC(C)(C)N([O])c1ccnc(c1)c1cc(ccn1)N([O])C(C)(C)C , P-1 ,1,1,1.26515185089,0.682986237973
4310, XOZBUK , O=N(=O)C=CC1=CC=CO1 , P21/n ,0,0,1.5222402630899998,0.735421851364
4311, QOHFOK , COC(=O)CC1CCCC(COC(=O)c2ccc(cc2)N(=O)=O)O1 , P212121 ,0,0,1.31588019236,0.662061226322
4312, YALTUA , O=N(=O)c1cc(c(Nc2ccccn2)c(c1)N(=O)=O)N(=O)=O , Pna21 ,0,0,1.60121508647,0.681964257964
4313, VORLIY , COc1ccc(cc1)c1c2C(=O)OCc2nc2ON=C(C)c12 , P21/c ,1,0,1.4798779204799999,0.721554487179
4314, BIDKEE , COc1ccc2ccccc2c1c1c(ccc2ccccc12)C(=O)N(O)C(c1ccccc1)c1ccccc1 , P21 ,0,0,1.24038780627,0.670955338657
4315, NIQTUD , O=C(CCC(=O)Oc1ccc(cc1)N(=O)=O)Oc1ccc(cc1)N(=O)=O , C2/c ,1,0,1.48999215556,0.697786341329
4316, XIJWAQ , CC1(C)N=C(C=[N+]([O-])C1(C)C)C1=[N+]([O-])C(C)(C)C(C)(C)N1[O] , P21/n ,0,0,1.21969329014,0.661317472786
4317, MHPIPO11 , CC1(C)CC(O)CC(C)(C)N1[O] , Cm ,0,0,1.1820714586799999,0.685823754789
4318, JONHIF , CCOC(=O)C1(O)CC(CC(O)(C1N(=O)=O)C(=O)OCC)c1ccc(cc1)N(=O)=O , P-1 ,1,0,1.4468098714700002,0.746504157218
4319, YOWYIT , CC1(C)N([O])C(=N([O])C1(C)C)c1c(C2=N([O])C(C)(C)C(C)(C)N2[O])n([O])c2ccccc2n1[O] , P21/c ,1,0,1.39492003262,0.700636587
4322, HNIDPA03 , O=N(=O)c1cc(c(Nc2c(cc(cc2N(=O)=O)N(=O)=O)N(=O)=O)c(c1)N(=O)=O)N(=O)=O , P212121 ,0,0,1.8251917737299999,0.743228623503
4323, DNBZFX , O=N(=O)C1=CC2=[N+]([O-])ON=C2C(=C1)N(=O)=O , P1121 ,0,0,1.76245551338,0.7106916000929999
4324, ACNOCT , CC1=NOC(=NOC(=NOC(=NOC(=NOC(=NOC(=NOC(=NO1)C)C)C)C)C)C)C , C2/c ,1,0,1.32258222905,0.653003246753
4325, NEJZOS , COC(=O)C1(C(CN(=O)=O)c2ccccc2)C(C2=C(OCCC2)C1=O)c1ccc(OC)cc1 , P21/c ,1,0,1.35329032885,0.6871302578020001
4326, GIKDUC , O=N(=O)c1cccc(c1)[N+]1=NOC(=N1)[O-] , P21/n ,0,0,1.7101723362999999,0.7451025405570001
4327, REMQAE , N#CCC1CC(=NO1)c1ccccc1 , P212121 ,0,0,1.26134035699,0.669891989199
4329, BEZREF , CC(C(=NO)c1ccccc1)C12OC3CC(CC(C3)O1)O2 , Pbca ,1,0,1.34798026915,0.697191065094
4330, ACUJOX , COC(=O)C1=C(C(=O)OC)C2(N(O1)C(C)COC2=O)c1ccccc1 , P212121 ,0,0,1.437262892,0.702237175063
4331, HAPCUZ , O=N(=O)c1ccc(cc1)C1=C(Nc2ccccc12)C1=CCCCC1 , P-1 ,1,1,1.27272008955,0.656375071469
4332, FIFJUZ , CCOC(=O)C1(C#N)C2(C#N)C(=NC(ON=C(C)C)(ON=C(C)C)C12C#N)N , P-1 ,1,1,1.21114137771,0.6110063335679999
4333, IRIPUV , O=C1NC2CC1C1ON=C(C21)c1ccccc1 , P21/a ,0,0,1.31929059133,0.663719063545
4335, WIXTUT , CC(C)(C)OC(=O)N1C(COC1(C)C)C1C(N1C(=O)OCc1ccccc1)N(=O)=O , P212121 ,0,0,1.31172188929,0.6746315944589999
4336, TEMBIW , CC1(C)CC(=NOC(=O)c2ccccc2)c2cc(ccc2O1)N(=O)=O , P-1 ,1,1,1.34670892907,0.6623456790119999
4337, DUYGAG , CCCC(CCC)(CC(=O)NCCC[N+](C)(C)[O-])C1CCCCC1 , P21/c ,1,0,1.1390176463700001,0.697806252639
4338, HUFSAD , CC1=C(C=NO1)C(=O)NN=Cc1ccccc1 , P-1 ,1,1,1.35937617941,0.6835044267010001
4340, PEZGIK , CC(C)(C)C1=CC2(Nc3ccc(cc3OC2C=C)N(=O)=O)C=C(C1=O)C(C)(C)C , P21/c ,1,0,1.18350916365,0.568904803286
4341, FALBEB , ON1C2C(Cc3ccccc23)OCC1=O , P212121 ,0,0,1.4707749725400001,0.7381021850480001
4342, RUJXAW , COC(=O)C1(C)CCCC2(C)C1CCC13C=C(C(C)C)C(CC21)C1C3C(CCC21OCCO2)=NO , P21 ,0,0,1.16377365508,0.627122153209
4343, GISDIX , [O]N(=NNc1ccc(cc1)N(=O)=O)c1ccccc1 , P21/c ,1,1,1.43086553213,0.694495459647
4344, FEMREV , COc1cc(ccc1O)C1C(C(C1c1ccc(O)c(OC)c1)C(=O)Oc1ccc(cc1)N(=O)=O)C(=O)Oc1ccc(cc1)N(=O)=O , P21 ,0,0,1.41339391377,0.6776092728759999
4346, OYEHUW , CCOC(=O)C(CC1C(=O)Nc2ccccc12)=NO , P-1 ,1,1,1.35034482873,0.68197128542
4347, LUPBAA , OC1CCOC1C1CCCN1C(=O)c1ccc(cc1)N(=O)=O , P212121 ,0,0,1.43661869571,0.723807692308
4348, YUGDUB , CC(CCC(CCC(C)=O)N(=O)=O)OC(=O)c1cc(cc(c1)N(=O)=O)N(=O)=O , C2 ,0,0,1.33874522576,0.646773118063
4349, AFENIJ , COc1ccc(cc1)C=C1CCCC2=C1OC(=C(C2c1ccc(OC)cc1)C1=NC(=NO1)c1ccccc1)N , P-1 ,1,1,1.30152678232,0.6757555866
4350, CAFQUW , NC1=NC(=O)N(C=C1)c1c(cc(cc1N(=O)=O)N(=O)=O)N(=O)=O , Pbca ,1,0,1.5917150984600001,0.678964401294
4351, IDOTUS , Cc1ccc(cc1)C1=Nc2ccc(cc2O1)N(=O)=O , Pbca ,1,0,1.3882778602,0.693763606096
4352, SAGLOC , COC12OCCCC1C=CC2COC(=O)c1ccc(cc1)N(=O)=O , P-1 ,1,1,1.3733844752200002,0.686853614613
4354, BANYIA , COC1(OC)C2CC(C(C=C2C)C1=O)N(=O)=O , P21/c ,1,0,1.34072006266,0.695534523443
4355, DAFSUZ , ON=C1CCCC21CCCC2=NO , P-1 ,1,1,1.2975497802,0.6981818181820001
4356, KIVFIE , CN(C)c1ccc(cc1)C(=NNc1ccc(cc1)N(=O)=O)N1C=NC=N1 , P-1 ,1,1,1.37997283264,0.7010104155850001
4357, HOBSAU , O=C1N(Cc2ccccc2)C(=O)C(=C1c1ccccc1N(=O)=O)c1ccccc1N(=O)=O , Pbca ,1,0,1.43554785343,0.69422291383
4358, GUNGON , CN1C(=O)C2(C3CCC(C(=CC=Cc4ccc(cc4)N(=O)=O)C3=O)C2(C#N)C#N)c2ccccc12 , P21/c ,1,0,1.11930710441,0.560385244001
4359, TURMAW , CC1(C)N([O])C(=[N+]([O-])C1(C)C)c1cc(cc(c1)N(=O)=O)N(=O)=O , P43 ,0,0,1.44829154467,0.7011818085889999
4360, WIKYIY , CC1C(C)(C)c2cc(C)c(cc2C1(C)C)N(=O)=O , P21/n ,0,0,1.1732726498000001,0.692477333987
4361, JAPXOQ , O=N(=O)c1ccc(C=CC2=NN(CC2)c2ccccc2)cc1 , P21/c ,1,1,1.36715185421,0.7028929830580001
4362, ENUNAE , COc1cc(C=O)c(cc1OC)C1=C(N=C(C)N1CCCc1ccccc1)N(=O)=O , P21/n ,0,1,1.33000047485,0.691291359425
4363, FOHMUK , O=N(=O)C1CC1N(=O)=O , P21/n ,0,0,1.60337965863,0.7103494623659999
4365, MNIANL04 , Nc1cccc(c1)N(=O)=O , Pca21 ,0,0,1.46915615574,0.723072066822
4366, FONYIR , CC1(C)C2CCC1(C)C1=NC(C(CN(=O)=O)c3ccccc3)C(=O)OC21 , P212121 ,0,0,1.273908856,0.668339995792
4368, FOHHUG , OC(=O)C#Cc1ccc(cc1)N(=O)=O , P21/n ,0,0,1.51388658038,0.721421975993
4369, PABBOL , CC(c1ccc2ccc3cccnc3c2n1)c1ccc(cc1N(=O)=O)N(=O)=O , P21/n ,0,0,1.4338562577899998,0.6969400864949999
4370, GAVBAH , COc1ccccc1C1C(C(=O)C(C(N1N=O)c1ccccc1OC)c1ccccc1)c1ccccc1 , P21/n ,0,0,1.28921844657,0.6849759363879999
4372, CIGLUB , CC1(C(C=Cc2ccccc2)N2CCC(=O)N2C1c1ccccc1)N(=O)=O , P21/c ,1,0,1.24877924918,0.6464228203360001
4373, GUYNOD01 , CC1=NN(C(=O)C1=C(NO)c1ccccc1)c1ccccc1 , Cc ,0,0,1.3336604541700001,0.688880097062
4374, BOCBEA , CC12CC31CCCCC(=NO)C3C=C2 , P21/n ,0,0,1.1619921340100001,0.669904692082
4375, REVPUG , OC1(C=C)C(CC=C)C(OC(=O)c2cc(cc(c2)N(=O)=O)N(=O)=O)C(OCc2ccccc2)C(OCc2ccccc2)C1OCc1ccccc1 , P212121 ,0,0,1.33113921323,0.678171759368
4377, HOSDOK , CN1c2ccccc2C(C)(C)C21CCc1cc(ccc1O2)N(=O)=O , Pcan ,0,0,1.33903921329,0.703385127636
4379, EFAXIS , CC(C)(C)C1CCC(CC1)Oc1c(cc(cc1N(=O)=O)N(=O)=O)N(=O)=O , P21/c ,1,0,1.34402712574,0.670113139678
4380, JECVES , CC1CN1CC(O)CN1C=CN=C1N(=O)=O , P-1 ,1,1,1.33621862599,0.6822604109839999
4381, HASHEO , O=N(=O)C12C3C4(C1C1(C2C3(C41)N(=O)=O)N(=O)=O)N(=O)=O , P21/a ,0,0,1.8137164347099999,0.729992510565
4382, GAMLOY , CC(C)(C)[N+]1=NN([O-])C(=N1)C(=O)NN(=O)=O , P21/c ,1,0,1.5715201117700002,0.7241615116760001
4383, UXUGAW , CN1C=C(N=C1C1OCCO1)N(=O)=O , P21/c ,1,0,1.53331666551,0.719098291291
4384, VEJROR , CC(=C)C1CCC(=CC1)C=NO , P-1 ,1,0,1.20643552869,0.713850435802
4385, WOTKIB , CN1C(=O)N(C)C2=C(NC=C2N(=O)=O)C1=O , C2/c ,1,0,1.61038862405,0.748458662235
4386, WIJRAI01 , CC1(C)CC(CC(C)(C)N1[O])N=Cc1ccccc1 , P21/c ,1,0,1.12715148975,0.6520032536320001
4388, APUYAL , CC(C)(C)N([O])c1ccc(cc1)C(c1ccc(cc1)N([O])C(C)(C)C)=C(C(C)(C)C)C(C)(C)C , P-1 ,1,1,1.14310540201,0.6783357771259999
4389, DOKYEH , O=N(=O)c1ccccc1NN=C(c1ccccc1)c1ccccc1 , P21/a ,0,0,1.29037195048,0.677544398907
4390, SOWCIS , CC(C)(C)OC(=O)NC1(CN(=O)=O)C(=O)N2CCCc3cccc1c23 , P21 ,0,0,1.33928845269,0.675195236657
4391, BUGKIY , NN1C=C(N=C1N(=O)=O)N(=O)=O , Pca21 ,0,0,1.7494633341900003,0.7212291696340001
4392, QOVXUV , OCCC[NH+]=Cc1cc(ccc1[O-])N(=O)=O , P21/c ,1,0,1.3816288221000002,0.6841668969329999
4393, JITVUD , OC(=CC(=O)c1ccc(cc1)N(=O)=O)c1ccccc1 , P21/c ,1,1,1.4290588647600002,0.714485794318
4396, NIZWUQ01 , O=N(=O)c1cccc(c1)C1OC2CCCN2C1c1cccc(c1)N(=O)=O , C2/c ,1,0,1.4003982354,0.689703584611
4397, POQXEA , CC1(C)CCCC(C)(C)N1OCC(=Cc1ccc(cc1)C=C(CON1C(C)(C)CCCC1(C)C)N(=O)=O)N(=O)=O , Pbca ,1,0,1.22919225634,0.6787898443289999
4399, SUXZOC , CCOC(=O)C12CC3CC(C1)CC(C3)(C2)C(=O)OC1CC(C)(C)N([O])C(C)(C)C1 , P212121 ,0,0,1.1774409051999999,0.64128765224
4400, WAHLIA , CN1C2CCCCC2OC1c1ccc(cc1)N(=O)=O , P212121 ,0,0,1.27987397008,0.662033902131
4401, HOFFIR , CCC1(CCC(=O)NC1=O)c1cccc(c1)N(=O)=O , P21/n ,0,0,1.4064635738100002,0.7044340463459999
4402, IWOPIU , CC(C)OC(=O)c1ccc(NC(=O)c2ccc(c(OC(C)C)c2)N(=O)=O)c(OC(C)C)c1 , P-1 ,1,1,1.30705713794,0.684428212074
4403, NHMENT , OCC1CC2(CC3(CC3C1N2)N(=O)=O)N(=O)=O , P21/c ,1,0,1.5073229986399999,0.7122655122660001
4404, TEWJUA , CC(C)Nc1c(c(N)c(c(N)c1N(=O)=O)N(=O)=O)N(=O)=O , Pbca ,1,0,1.60350595466,0.717941187498