ID,name,smiles,space_group,inversion_symmetry,beta_packing,density,packing_coefficient
6781, ZZZNQQ02 , OC(=O)C=Cc1ccccc1N(=O)=O , P21/n ,0,0,1.54263964586,0.741690724702
6782, DUMKUR , C1CC(CCC1c1ccccc1)=NOC(c1ccccc1)(c1ccccc1)c1ccccc1 , P21/n ,0,0,1.20667748529,0.6736611008040001
6783, RIPNIN , CC1(CCC2(CCCC2=NNc2ccc(cc2N(=O)=O)N(=O)=O)O1)C=C , P21/c ,1,0,1.41141390525,0.6995484220139999
6785, QEVVAP , CCCCOc1ccc(C=CC=CC=Cc2ccc(cc2)N(=O)=O)cc1 , P-1 ,1,1,1.27172204548,0.701189553658
6786, QOYJOD05 , O=C1NN=C(N1)N(=O)=O , P21/c ,1,0,1.87624531998,0.7413439936570001
6787, CASBOQ01 , O=N(=O)C1=CNN=C1N1C=NN=N1 , P21/c ,1,0,1.76933561061,0.744792139078
6788, CEBLAW , CC1=C(N(Cc2ccccc2)C(=N)C1(O)c1ccc(cc1)N(=O)=O)c1ccccc1 , P212121 ,0,0,1.2452783546100001,0.596253449568
6790, SIKTIP , COC1N(C(=O)C(C)C1(O)c1ccccc1)c1ccc(cc1)N(=O)=O , Pna21 ,0,0,1.3156086388500001,0.673309618131
6791, BIJTOD , CN1N=C(C)C(=C1c1ccccc1C)C1=NC(=NO1)c1ccccc1 , P21/c ,1,1,1.2600453825,0.665472370766
6792, OHIDOY , CCOC(=O)C1=NNC(=C(C1c1ccccc1N(=O)=O)C(=O)OC(C)(C)C)C , P21/c ,1,1,1.3315704398700001,0.685419334187
6794, PONWOF , COC(=O)CC(O)(CN=[N+]=[N-])c1ccccc1N(=O)=O , P21/n ,0,0,1.4629230575299998,0.70641167265
6795, CAHBIZ , CCC1(C)CCC2C(=C1)C(CC1C2(C)CCCC1(C)C(=O)OC)Nc1ccc(OC)cc1N(=O)=O , P21212 ,0,0,1.2380758881899998,0.674753487253
6798, TEYFOU , CC(C)C1=NC(=NO1)N1CCN(C(C)C1)c1ncc(OCc2ccncc2C#N)cn1 , P-1 ,1,0,1.3833879725,0.70622909699
6800, PIPRAH , CC1C=CC(OC(=O)c2ccc(cc2)N(=O)=O)C2OC12 , P21/a ,0,0,1.32989939796,0.664339647931
6801, LOLJAX01 , O=C(N1CC(C1)(N(=O)=O)N(=O)=O)C(=O)N1CC(C1)(N(=O)=O)N(=O)=O , Fdd2 ,0,1,1.7386841777700002,0.727534370392
6802, BEJYOE , OC1(ON=C(c2ccccc2)c2ccccc12)c1ccccc1 , P21/n ,0,0,1.3207560358700001,0.686319381712
6803, DNNEPH10 , O=N1c2cccc3cccc(c23)N1=O , P1121/b ,0,0,1.5138662131,0.7373737373739999
6804, RIJBIY , CC(=O)c1cccc(c1)N1N=C2C=CC=CC2=C1N(=O)=O , P-1 ,1,1,1.4329860144100002,0.701865079365
6805, WADVOP , CC1=C(C)C2(C)N(OC1(C)C2(C)COC(=O)CN1C(=O)C2C3CC(C=C3)C2C1=O)C(N)=O , P21/c ,1,0,1.3118541172799998,0.668202385849
6806, DIVPED , CCOC12OC3CC(=O)C4C1N(C=CC2C3N4c1ccc(cn1)N(=O)=O)c1ccc(cn1)N(=O)=O , P-1 ,1,1,1.48810769266,0.677476445124
6807, REFRID , None , Pbcm ,0,0,1.43811614109,0.722691367723
6809, DUYSUL , COC(=O)C1=C(NC(=C(C1c1cccc(c1)N(=O)=O)C(=O)OC(C)C)C)C#N , Pbca ,1,0,1.3428759130899999,0.680941018009
6810, LAWRAF , CC1(C)CCC2CCC3(C)C(=CCC4C5(C)CCC(OC(=O)c6cc(cc(c6)N(=O)=O)N(=O)=O)C(C)(C)C5CCC34C)C2C1 , P21 ,0,0,1.24655461862,0.683121412552
6813, TUMSUQ , O=N(=O)c1ccc(NN=C2Cc3ccccc3C#Cc3ccccc23)c(c1)N(=O)=O , P21/n ,0,0,1.4410356511200002,0.701982500651
6814, VAZMAL , COC(=O)C12CC=CC1(C)N(OCc1ccccc1)C(Cc1ccccc1)C2 , Pbca ,1,0,1.23320450482,0.6785020804440001
6815, NAVHEA , COC(=O)C1(CC(NC1c1ccc(cc1)N(=O)=O)c1ccccc1)C(=O)OC , P-1 ,1,1,1.35399149525,0.683470394737
6816, UPIMOX , COC(=O)CC1C(C(c2ccccc2)C2=C1Nc1ccccc21)N(=O)=O , C2 ,0,0,1.32582315778,0.6752817493690001
6817, QQQCOY10 , Cc1ccc(NN=CC(=O)Nc2ccccc2)c(c1)N(=O)=O , P21/a ,0,0,1.37955380746,0.7110457241600001
6819, ADOXID , CN1C=C(C)C(=N1)N(=O)=O , P21/c ,1,0,1.4243709266999998,0.7116085484460001
6820, RELQUW , CC1=CC=CN2C1=NC(=C2N(=O)=O)c1ccccc1 , C2/c ,1,0,1.39575401976,0.692371113205
6821, HOZBII , Oc1ccc(cc1)C(=O)NN=Cc1ccc(cc1)N(=O)=O , P21/n ,0,1,1.45122374007,0.7028537910889999
6822, KEPBUE , CCc1cc2OC(C)(C)Oc2cc1N(=O)=O , P21/n ,0,0,1.37455923194,0.7024514057060001
6826, OBUJAY , COc1ccccc1C(C)=NNc1ccc(cc1N(=O)=O)N(=O)=O , C2/c ,1,0,1.44182526945,0.6971513505
6827, KUPCEF , NC(=O)OCCC(N(=O)=O)(N(=O)=O)N(=O)=O , Pbca ,1,0,1.7522502689700001,0.726172741921
6828, SAWYAR , O=C1c2ccccc2[N+](=C1c1ccc(cc1)C#N)[O-] , P-1 ,1,0,1.3621434312099998,0.663515807828
6829, NIKJID , Cc1ccc(C=NO)c(O)c1 , P21/n ,0,0,1.36876517646,0.721602721603
6830, SUWXIR , CC1(C)N([O])C(=N([O])C1(C)C)C(C)(CO)CO , Fdd2 ,0,0,1.29920671709,0.7037808180859999
6831, FEMSOH , CCOC(=O)C1=C(C)OC(=C(C#N)C1c1ccc(cc1)N(=O)=O)N , P21/c ,1,0,1.3587966201,0.6724026935199999
6832, OYAXUI , CON(C)CC1C(c2ccccc2)c2ccccc2C1=O , P21/c ,1,0,1.19446791877,0.6510865457289999
6833, DIFZEY , CC1(C)C2CCC31C(C2)N(N(C3=O)c1ccccc1)C(=O)C(CC=C)NOCc1ccccc1 , P21 ,0,0,1.18267920646,0.6328608829110001
6834, VEGLUP , COC(=O)C1=C(C)N(C)C(=O)NC1c1cccc(c1)N(=O)=O , P21/c ,1,0,1.4483596659,0.7079013822429999
6835, XIKBIE , O=C1CCCC(C1=Cc1ccccc1N(=O)=O)C1=C(Nc2ccccc12)c1ccccc1 , P21/c ,1,0,1.2859378213,0.664096946649
6837, IWUREZ , CCOC(=O)C1=C(N)[N+](=C(C2CCCCC2)C1=C(c1ccccc1)c1ccccc1)[O-] , P-1 ,1,1,1.27179550411,0.686422413793
6839, KIBFUZ , CC(=O)C1C(C2CCCN2C21C(=O)c1ccccc1C2=O)c1ccc(cc1)N(=O)=O , P-1 ,1,1,1.3973497467899998,0.6971857410879999
6841, FULNIJ , CCOC(=O)C1=C(C)NC(=C(C1C1=C(CC)ON=C1c1ccccc1)C(=O)OCC)C , P21/c ,1,0,1.27351367423,0.610779707184
6842, DALWOD , CCOC(=O)C1C(C(C(=O)NC1=O)C(=O)OCC)c1cc(ccc1O)N(=O)=O , C2/c ,1,0,1.4124923976,0.668518591119
6843, NOXBEH , CC(=NO)C(=O)NCCCNC(=O)C(C)=NO , P21/c ,1,1,1.3996510244299998,0.6950152206999999
6845, UWOQII , COc1ccc(cc1)C1=NOC(N1c1ccccc1)C1=C(N2C=NC=N2)N(N=C1C)c1ccccc1 , P-1 ,1,1,1.27726923961,0.6457704089280001
6846, BUHLUM , CC(C)(C)NC(NC(C)(C)C)=C1C(=O)ON=C1c1ccccc1 , Pnma ,1,0,1.1751071465,0.648508328062
6847, IPITUY , NC1=NN=NN1CCN1N=C(N=[N+]=[N-])C(=C1N=[N+]=[N-])N(=O)=O , C2/c ,1,0,1.66752013581,0.706969135802
6848, CIYVEM , CC(C)(C)OC1CCN2OC3C4COC(O4)C(=O)C3C12 , P212121 ,0,0,1.31315562499,0.6715724751440001
6849, ACAGES , COC(=O)C1(CC(ON(c2ccccc2)C21C(=O)N(C)c1ccccc21)C=C)C(=O)OC , P-1 ,1,1,1.2809902209100001,0.660024154589
6850, LEGWAX , CCOC(=O)C1(C)CCCC2(C)C1CCC13CC(C)(CCC21)C(=O)C3COCc1ccccc1N(=O)=O , P212121 ,0,0,1.23940950723,0.6727188241200001
6851, CACRAA , CC1=C(C(=O)c2ccccc2)C(=O)c2cc(ccc2N1c1ccccc1)N(=O)=O , P21/n ,0,0,1.3666794080899998,0.6911315362
6852, AREJIS , CC(C)(C)C1=NO[N+](=C1c1ccc2ccccc2c1)[O-] , P212121 ,0,0,1.27684844444,0.6728405746930001
6854, SELHIC , COC(=O)C1(CC2CON3C(C(=O)c4ccccc4)C23C1C1CCCCC1)C(=O)OC , P21/c ,1,0,1.2663289569,0.6605302806100001
6855, HEVJIB , CC(C)(C)C(=NO)C1c2ccccc2c2ccccc12 , P-1 ,1,1,1.14484696656,0.632963762428
6856, TUSJAT , OC1C(CN(=O)=O)OC(C=CC(=O)OCc2ccccc2)C1OCc1ccccc1 , P21 ,0,0,1.3420162422,0.6845207475990001
6858, GUHLEA , CN1CCN2C(=NOC2(CC21CC(=NO2)c1c(C)cc(C)cc1C)c1ccccc1)c1c(C)cc(C)cc1C , P21/c ,1,0,1.2106074386799999,0.6803852842810001
6859, CAMJUW , Cc1ccc(cc1)C(Nc1ccc(C)c(C)c1)=NOC(=O)c1ccccc1 , Pbca ,1,0,1.2214300361900001,0.6668338268540001
6860, BVXIPO , CC(C)C(NC(=O)OCc1ccccc1)C(=O)ON=C1C(=NN(C1=O)c1ccccc1)C , P212121 ,0,0,1.2786620367700001,0.60031567991
6861, ZELTUF , O=C1OC(N(C(=O)c2ccccc2)C21CC1CCCN1O2)c1ccccc1 , P212121 ,0,0,1.34817108028,0.68504678901
6862, CEVBOV , COc1ccc(cc1)N([O])c1ccc(cc1)N1C=CC=C1 , Cc ,0,1,1.35432208315,0.7084694379809999
6864, UGICIX , CC1=C2C(ON(C(c3ccccc3)C2=C(O1)c1ccccc1)c1ccccc1)c1ccccc1 , P21/n ,0,0,1.25222170619,0.672584140745
6865, VAQPEJ , CC(CC1CC1COC(=O)c1cc(cc(c1)N(=O)=O)N(=O)=O)OC(=O)c1cc(cc(c1)N(=O)=O)N(=O)=O , P21 ,0,0,1.4796993750299998,0.688627340333
6866, RAXWOD , CC(=O)N1CCCCC2=CC(OC(=O)c3ccc(cc3)N(=O)=O)C(OC(=O)c3ccc(cc3)N(=O)=O)C12 , P-1 ,1,1,1.41053110884,0.677732240437
6867, WIXBUB , COc1ccc(O)c(c1)C(NC(C)=O)c1cccc(c1)N(=O)=O , P21/c ,1,0,1.30567339802,0.645141694256
6869, ATOVAG , Cc1cccc(c1)C1CC1C(=NO)C1=CC=CO1 , Pcab ,0,0,1.26350866959,0.686892361111
6870, IKAGIK , CC(C)C1COC2(N1)ON(C(c1ccccc1)C12OC1(C)C)C(C)(C)C , P212121 ,0,0,1.1632638576799998,0.656328358209
6871, NAPJIA , CC(=CC=C(C)N(=O)=O)N(=O)=O , P21/n ,0,0,1.41868705925,0.685075070611
6873, KOKBET , Cc1c(N)cccc1N(=O)=O , P212121 ,0,0,1.4203833224000002,0.722444678609
6874, SAHLEU , OC(=O)c1ccccc1Nc1ccccc1N(=O)=O , P21/c ,1,0,1.43074687399,0.6821759259260001
6875, QERYUK , O=C1C(Nc2ccccc12)=Cc1ccccc1N(=O)=O , P21 ,0,0,1.4885183989200002,0.735015329586
6876, POVHUD , ON=C(CN1C=CN=C1)c1ccc2ccccc2c1 , P21/a ,0,0,1.33352142426,0.695761797542
6878, PAZKOQ , COc1ccc(cc1)C12C=CC3(CCCCC13C)C1C2C(=O)C=CC21CC(=NO2)C , P21212 ,0,0,1.2604188797799998,0.679082781385
6880, TIBMOG , Nc1c(c(N)n([O])c(N)c1N(=O)=O)N(=O)=O , P21/c ,1,1,1.87613223718,0.7670781893
6881, DUPLIK , CC(C)(C)OC(=O)C(C)(C)C(=O)c1ccc(cc1)N(=O)=O , P21/c ,1,0,1.22792755445,0.64248056474
6882, BIKZIH , CC1(C)N([O-])C(C)(C)c2cc3[n+](nc(nc3cc12)c1ccccc1)c1ccccc1 , P21/c ,1,0,1.24136934525,0.658678718401
6883, UMIDAX , O=N(=O)NN1N=NN=C1C1=NN=NN1NN(=O)=O , P21/n ,0,0,1.9670404438799998,0.7580309139779999
6886, LOZGOW , Cc1c(ccc2nc3c(ccc(c3nc12)C(C)(C)C)N(=O)=O)N(=O)=O , P-1 ,1,1,1.4376205379700002,0.716260795433
6888, TEXMIU , CCOC(=O)C1=C(C)NC(=O)N(CN2C=C(N=N2)c2ccccc2)C1c1ccc(cc1)N(=O)=O , Aba2 ,0,0,1.3484194137299998,0.664986439565
6889, NIPCIM , O=N(=O)c1ccc(cc1)N=C=Nc1ccc(cc1)N(=O)=O , Pna21 ,0,0,1.50193407213,0.724675012037
6891, YEZRIH , CC1(C)N([O])C(C)(C)c2c(ccc(c3ccc(N)cc3)c12)c1ccc(N)cc1 , I-4 ,0,0,1.02372415252,0.558864927686
6892, ROKPOW , O=C1C=CC=CN1OC1CCCCC1 , Pna21 ,0,0,1.2462384841399998,0.681399828767
6896, HANGAG , COC(=O)C(C)(C)NC(=O)C(C)(C)NC(=O)C(C)(C)NC(=O)C(C)(C)NC(=O)C(C)(C)NC(=O)C(C)(C)NC(=O)C(C)(C)NC(=O)C1(CC(C)(C)N([O])C(C)(C)C1)NC(=O)OCC1c2ccccc2c2ccccc12 , P21/c ,1,0,1.15232348559,0.615430690902
6898, ECUMUN , CC1ON(C(C1c1ccccc1)c1ccccc1)c1ccccc1 , P-1 ,1,1,1.1905762734,0.651710963455
6899, VUYWES , CN1N(c2ccccc2)C(=O)C(=C1C)[N+]1=CC(=O)O[N-]1 , P21/c ,1,0,1.4861391929899999,0.730756072528
6900, IJUTIS , O=C1C2CCCC1C(NC2c1cccc(c1)N(=O)=O)c1cccc(c1)N(=O)=O , P-1 ,1,1,1.3471976208,0.656370656371
6901, AFIMUZ , CC1(C)C2CCC1(C)C1(O)ON=C(C21)c1ccccc1 , C2 ,0,0,1.20597396564,0.653467192683
6902, MULYAV , COC(=O)C12CN3C=CC=C3C1N(OC2c1ccc(C)cc1)c1ccccc1 , P-1 ,1,1,1.2977274435600001,0.6780811208059999
6903, OYEQEP , COc1cc2C(CN=C(c3ccc(OC)c(c3)N(=O)=O)c2c(OC)c1OC)Cc1ccncc1 , P21/n ,0,1,1.33024631834,0.672642028001
6905, HEDHAC , CCOC(=O)C=C(C)N1OC(=O)c2c(C)cc(C)nc12 , P21 ,0,0,1.3201785046799999,0.6987436961660001
6906, SAWFUS , COC(=O)C(=Nc1ccc(cc1)N(=O)=O)c1ccccc1 , P21/n ,0,0,1.35966004014,0.6777428920290001
6907, DAZLAT , COc1cc(OC)c2C(=O)C3=C(C(ON(=O)=O)C(C)(O)OC3)C(=O)c2c1 , P21/c ,1,1,1.54420868743,0.717422317764
6909, ETUGAB , C1CC2=CON=C2C2(C1)CCCC1=CON=C21 , C2221 ,0,0,1.3778831822100002,0.698426782721
6910, GIVJAX , O=N(=O)c1ccc(Cc2cnccn2)cc1 , P212121 ,0,0,1.3799776896899998,0.689226141646
6911, JITWUE04 , Cc1cc(C)c(c(C)c1)C(O)=CC(=O)c1ccccc1N(=O)=O , Pbca ,1,0,1.3063269068,0.695410808618
6912, CTMTNA12 , O=N(=O)N1CN(CN(C1)N(=O)=O)N(=O)=O , Pbca ,1,0,1.7943022396200001,0.749426127367
6913, MABPAJ , O=C1NC(Nc2ccccc12)c1ccc(cc1)N(=O)=O , P-1 ,1,1,1.4461856713799999,0.690958098505
6914, VALSUY , O=N(=O)C(COC(OCC(N(=O)=O)(N(=O)=O)N(=O)=O)(OCC(N(=O)=O)(N(=O)=O)N(=O)=O)OCC(N(=O)=O)(N(=O)=O)N(=O)=O)(N(=O)=O)N(=O)=O , Fdd2 ,0,1,1.9379048479099998,0.7433674809559999
6916, FEDXES , COC(=N)C1=N([O])C(C)(C)C(C)(C)N1=O , Pna21 ,0,0,1.24037320384,0.672393348964
6917, TISJUB , [O]n1ccc(cc1C(O)=O)N(=O)=O , P212121 ,0,0,1.7012205764200001,0.742969932944
6918, VERHOQ , COC1=CC2=C(N=C(C)C(C)(C)C)N(N=C2C=C1)c1ccc(cc1)N(=O)=O , P-1 ,1,1,1.29314956013,0.685636363636
6919, MAMVUS , CC(C)N1CCON=[N+]1[O-] , P212121 ,0,0,1.31360284802,0.6778667005419999
6920, ROXKIA , CN1CCN(CC1)c1ccc(c(c1)N1CCc2ccccc2C1)N(=O)=O , P21/c ,1,0,1.3279756788500001,0.7038968793350001
6921, DMXCYT , CN1C=C(C)C(NC1=O)=NO , P21/c ,1,1,1.37638129224,0.672381576159
6923, IZISOA , CC(NOCC=C)=C1C(=O)CN(C2CCCCC2)C1=O , C2/c ,1,0,1.2351302951799998,0.670123497516
6924, AMNTPY , Nc1ncccc1N(=O)=O , P21/n ,0,0,1.55544986303,0.7281444582809999
6925, HADCAT , Cc1c(cc(cc1N(=O)=O)N(=O)=O)N=Nc1cc(cc(c1C)N(=O)=O)N(=O)=O , P-1 ,1,1,1.6334999998100002,0.7266711032240001
6926, ULEYUH , COc1nc(OC)nc(n1)C(N(=O)=O)(N(=O)=O)N(=O)=O , Pnma ,1,0,1.7266192970700003,0.722767648434
6927, BAKTUD , COC(=O)C1=CC(=NO1)C , P21/m ,0,1,1.4448267906099999,0.71337962963
6928, HAVGOD , CC1(C)CCCC(C)(C)N1OC(N1C=C(N=N1)c1ccccc1)C(=O)c1ccccc1 , P-1 ,1,1,1.24905851451,0.684597123307
6929, XEQTOE , CN1C(=O)N(C)c2nc(C)c(nc2C1=O)C(C)=NO , P-1 ,1,1,1.5668400215399998,0.7556527540960001
6930, OYUVIP , O=C(NN=Cc1ccccc1N(=O)=O)c1cnc2ccccc2n1 , Cc ,0,1,1.52856748382,0.739718230487
6931, CEKVOD , O=N(=O)c1ccccc1NN=Cc1ccccc1 , P21/n ,0,0,1.40707107505,0.7144462279289999
6932, ABAVUW , COc1cc(cc(C=NO)c1O)C(C)(C)C , P212121 ,0,0,1.2303998033499999,0.675535399345
6933, EFAKAX , COC1(C)OC(C2CCOC(=O)C2C(CN(=O)=O)c2ccccc2)C(=O)OC1(C)OC , P21 ,0,0,1.37374892437,0.695585112489
6935, YEGFIZ , Cc1cccc2C(C=CC(C)(c12)N(=O)=O)C(N(=O)=O)(N(=O)=O)N(=O)=O , P-1 ,1,1,1.5946993356099999,0.723980676329
6936, KOTWIB , Cc1ccc(nc1)c1c(cnc2N(N=C(C)c12)c1ccccc1)N(=O)=O , P-1 ,1,1,1.4090214832299999,0.7116950283619999
6937, VERJAE , O=N(=O)c1ccc2C3c4ccc(cc4C(c2c1)c1cc(ccc31)N(=O)=O)N(=O)=O , C2/c ,1,0,1.55810677104,0.7158237946580001
6938, UZISEC , CCOC(=O)C1C=CN2N(CCC2=O)C1c1ccc(cc1)N(=O)=O , P-1 ,1,1,1.4017896070700002,0.693177489177
6939, IWUXON , O=N(=O)c1cc2ON=C(C3OCCO3)c2c(c1)N(=O)=O , P21/c ,1,0,1.7251973910499998,0.748021232278
6940, JOKWEN , [O-][n+]1ccc(CN2COc3ccc4ccccc4c3C2)cc1 , P21/c ,1,0,1.38581333957,0.725665483585
6941, OZIRUM , CN(C1CC(C)(C)N([O])C(C)(C)C1)C(=O)c1cc(ccc1C#C)C#C , P21/c ,1,0,1.19381311177,0.677532631021
6942, TAKRON , OC(=O)C(=Cc1ccc(cc1)N(=O)=O)c1ccccc1 , P21/c ,1,0,1.4585380837000002,0.731420927467
6943, DARYUQ01 , CN1c2ccc(cc2C(C)(C)C21Oc1ccccc1C=C2)N(=O)=O , P21/c ,1,0,1.31623218673,0.671063674512
6944, OBOBOW , ON=C1ON=C(c2ccccc2)C1=NO , P21/c ,1,0,1.48424190681,0.694838120433
6946, IGAFOM , CC1(C)CC(C)(c2ccc(cc2)N(=O)=O)c2ccccc12 , P21/c ,1,1,1.2382791906100001,0.669560395241
6947, ZZZBPY10 , C[N+]([O-])=NCOC1OC(CO)C(O)C(O)C1O , C2 ,0,0,1.51010316637,0.748951639078
6948, FURALA10 , O=C1OC(CN2CCOCC2)CN1N=CC1=CC=C(O1)N(=O)=O , P21/n ,0,0,1.4061093363400001,0.6542288188000001
6949, YAGHIA , COC(=O)N(C(=O)N(C)c1ccc(OC)cc1)c1ccc(cc1)N(=O)=O , P21/n ,0,0,1.44457421477,0.716780140759
6951, YALZUG , CC(N1CC(CC1=O)C(C)=NO)c1ccccc1 , P21 ,0,1,1.20838815005,0.591383219955
6952, URIBUT , COC(=O)C1CC2CC3COC(C3)N2O1 , P21/c ,1,0,1.37705118755,0.6950967161489999
6953, OJOLAC , CC1(C)OCC(CO1)(N=O)N(=O)=O , C2/c ,1,0,1.4861357505000001,0.6897899543379999
6955, METNAM08 , CN(C)N(=O)=O , P21/m ,0,1,1.4637557802,0.759814587078
6956, EGUQUS , OC(C1CC2CCN2C1=O)c1ccc(cc1)N(=O)=O , P212121 ,0,0,1.3499907354799998,0.669887278583
6957, RULLEP , CC(CN1CCN(CC(C)N(=O)=O)CC(C)(C1)N(=O)=O)N(=O)=O , Pbca ,1,0,1.29056586013,0.647857142857
6958, PATVIS , O1N(c2ccccc2)C(c2ccccc2)(c2ccccc2)c2ccccc12 , P21/c ,1,0,1.25451096436,0.67172327044
6959, LAPWOR , O=N(=O)c1cc(cc(c1N(=O)=O)N(=O)=O)N1C=NN=N1 , P212121 ,0,0,1.7951335179799999,0.733396826349
6960, BIZWIR , COc1ccccc1c1ccccc1C=[N+]([O-])C(C)(C)C , P21 ,0,0,1.15236507113,0.6431557038669999
6961, FOCXUR01 , O=N(=O)c1ccccc1C1NCc2ccccc2N1 , P21/c ,1,0,1.37727848634,0.696809256662
6962, HEBBAR , COC(=O)C1(N(N=C(N2CCCC2)C1=O)c1ccc(cc1)N(=O)=O)c1ccccc1 , P21/n ,0,0,1.3768964901499998,0.688209876543
6963, HUKVAL01 , O=N(=O)NCC(CNN(=O)=O)NN(=O)=O , Pnma ,1,0,1.7830404986300001,0.7501027077500001
6964, YULTEG , [O]n1c(CN2C=CC=N2)cccc1CN1C=CC=N1 , Pbcn ,1,0,1.3569503793000002,0.6912820512819999
6965, KOTSIV , COc1cc(ccc1N)N(=O)=O , P21/a ,0,1,1.4543583742500001,0.708728465307
6966, JEYKEG , COC(=O)C(C)(NC(=O)c1ccc(cc1)N(=O)=O)C(C=C)c1ccccc1 , P21 ,0,0,1.3496409650799999,0.701582587297
6968, FUGREE , O=N(=O)c1ccc(cc1)C1OC2CCCN2C1c1ccc(cc1)N(=O)=O , P21/c ,1,1,1.3782197429299998,0.677116015846
6969, ZZZKEA02 , [O]N1=C2C=CC=CC2=NO1 , C-1 ,0,1,1.48101993005,0.681027340514
6972, CESYIL , O=C(Oc1ccccc1)N1OC2OC2C1c1ccccc1 , P21/n ,0,0,1.40623405308,0.761857421943
6973, XODXOF , O=C1N(C(c2ccccc2N(=O)=O)C21c1ccccc1Oc1ccccc21)N1CCOCC1 , P21/c ,1,0,1.33886500034,0.658987747146
6974, IWILAC , COC(=O)CC=C1Oc2ccc(cc2C1O)N(=O)=O , P-1 ,1,1,1.5054395703299999,0.72
6975, JUZHIX , COc1c(OC)c2cc(cc3c(OC)c(OC)c4cccc1c4c23)N([O])C(C)(C)C , P21/c ,1,0,1.33041212983,0.6950631658390001
6976, UVEGEJ , O=N(=O)NC1=NON=C1C1=NOC(=NO1)C1=NON=C1NN(=O)=O , R-3 ,1,0,1.8166561507799999,0.6934874074070001
6977, VUXLOR , Cc1ccc(cc1)C1=NOC2(C(c3ccccc3)c3ccccc3C2=O)C1c1ccccc1 , P21/n ,0,0,1.23893711555,0.655333201242
6978, JOFGUH , COc1cccc(c1)C(C)=NNc1ccc(cc1)N(=O)=O , P21/c ,1,0,1.3672314613699998,0.699802274949
6979, IPAQAT , COc1cc2c(C(CC3C4(C)CCCC(C)(C)C4CCC23C)C#N)c(c1OC)N(=O)=O , P212121 ,0,1,1.21179555448,0.656724432349
6980, FELCEG , OC1CN(OC2CON(CC12O)C(=O)OCc1ccccc1)C(=O)OCc1ccccc1 , P-1 ,1,1,1.4262901965500001,0.6974487813
6981, TAMSUX , CC(C)(C)OC(=O)C(CC1OC(C(O)C1O)N1C=CC(=O)NC1=O)NC(=O)Nc1ccc(cc1)N(=O)=O , P212121 ,0,0,1.40691712694,0.674803321678
6982, BOWJED , COc1ccc(cc1)C(C)N1CCC(C)(O)C(C1c1ccccc1)N(=O)=O , P212121 ,0,0,1.23794248847,0.665659921474
6983, DAVFIS , COc1ccc(cc1)C1C(N1N1C(=O)c2ccccc2C1=O)C(=Nc1ccc(cc1)N(=O)=O)c1ccccc1 , P21/c ,1,1,1.3676484990399997,0.68729980927
6985, RAFKIU , CC1=C(C(c2ccc(cc2)N(=O)=O)c2c(O)ccc3ccccc23)C(=O)N(N1)c1ccccc1 , P21/c ,1,0,1.38016083869,0.6902691080589999
6987, UFUGOS , CN1CCC23CCCC1C2Oc1ccc(cc31)N(=O)=O , P212121 ,0,0,1.34590139304,0.7039417018
6988, LEGGUC , CC(=O)C(C=Cc1ccccc1)C(CN(=O)=O)c1ccccc1 , P21 ,0,0,1.23762131886,0.668364710225
6989, ACAMOG , None , I2/a ,0,0,2.66475492843,0.6810465534119999
6990, YUJGIT02 , O=N(=O)c1ccc(cc1)C=NNc1ccccc1 , P212121 ,0,0,1.36810147186,0.694489411827
6991, BOMMAR , O=C1CC2CC1c1ccc(cc21)N(=O)=O , P-1 ,1,1,1.43401132213,0.6989305115440001
6992, XUQMUT , COC(=O)CC(=[N+]([O-])C(COCc1ccccc1)C(C)C)C(=O)OC , P1 ,0,1,1.23255672899,0.654833333333
6994, DEVWUX , O=C1NCCc2ccc3cccc(c3c12)N(=O)=O , P21/n ,0,0,1.49865241847,0.730215930216
6995, YUXHAB , CC1=C(Cc2ccc(CC3=C(C)ON=C3C)cc2)C(=NO1)C , P21/n ,0,1,1.19730203637,0.657021604938
6996, LAWJAV , None , P21/c ,1,0,1.5358183770200002,0.7824074074070001
6997, SAVKEI , O=N(=O)C1=CC=C(NCc2ccc(cc2)C(c2ccccc2)=C(c2ccccc2)c2ccccc2)C2=NON=C12 , P21/c ,1,0,1.289139869,0.658171507132
6998, KABWUF , CC1=N([O])N(=C(C)C2=NON=C12)[O] , P21 ,0,0,1.5418368806099998,0.708869895537
7000, MUDQIM , COC(=O)C12CCCC(C)(C1=O)C(=CC2)c1ccc(cc1)N(=O)=O , Cc ,0,0,1.3557934027599998,0.6961176863140001
7003, ETNIBZ01 , CCOC(=O)c1cc(cc(c1)N(=O)=O)N(=O)=O , P1121/b ,0,0,1.50908592372,0.667345110087
7005, NEZWAR , CC1(C)CC(CC(C)(C)N1=O)NC(=O)C(C)(C)NC(=O)C(C)(C)NC(=O)c1ccc2ccc3cccc4ccc1c2c34 , P-1 ,1,1,1.19928116675,0.643952406513
7006, VARCUO , CCN(CC)c1ccc(C=Nc2cc(cc(c2)N(=O)=O)N(=O)=O)c(O)c1 , P212121 ,0,1,1.41477751877,0.706030453094
7008, TUSYAJ , CC1(N=NCC1C1CN=NC1(C)N(=O)=O)N(=O)=O , P21/n ,0,0,1.5400818284200002,0.729009747452
7010, BEPKEM , O=N(=O)c1ccc(NN=C2CCCCCCCC=CCCCCCCC2)c(c1)N(=O)=O , P21/c ,1,0,1.1910444010899999,0.67180347277
7011, DIXBAO , O=C(Nc1ccc(cc1)N(=O)=O)c1ccc2ccccc2n1 , P21/c ,1,0,1.46698165932,0.726473390977
7012, MNTBZA , Cc1cc(cc(C)c1N(=O)=O)C(O)=O , P21/a ,0,0,1.3558059352899998,0.666254578755
7013, LAPYUY , Cc1ccc(NC(=O)CCC(O)=O)c(c1)N(=O)=O , P-1 ,1,1,1.4477399931200001,0.703753026634
7014, YUCTEW , COc1ccc(cc1)C(=O)CCNc1cc(ccc1NCCOC(C)=O)N(=O)=O , C2/c ,1,1,1.3942616347999999,0.713503845329
7015, VIQWUO , CC1(C)C2CCC1(C)C(=O)C2=Nc1cccc(c1)N(=O)=O , P212121 ,0,0,1.2541007394900001,0.671753060051
7018, SEYMIS , CCOC(=O)C1=CC(=CN1C)NC(=O)C1=C(C)ON=C1c1ccccc1 , C2/c ,1,0,1.29100244564,0.657182399614
7019, HOFJES , CC(=C)C(=O)Oc1ccc(cc1)N(=O)=O , C2/c ,1,0,1.43421236777,0.715425396894
7022, EQETOK , CC1(C)CC2(C)NCCN2C(=N)C1=[N+](O)[O-] , C2/c ,1,1,1.25934111373,0.658989521735
7023, ZZZLXE01 , ON=C(c1ccccc1)C(=NO)c1ccccc1 , P21/n ,0,1,1.3149480515899998,0.681392966883
7024, XERTEW , CON(C)C(=O)C1Cc2cccc3cccc(C1c1ccccc1)c23 , P-1 ,1,1,1.23426168341,0.6645256917
7025, EVINOM02 , O=N(=O)c1ccc([NH+]=Cc2c([O-])ccc3ccccc23)cc1 , P21/c ,1,0,1.4387678791499998,0.721223491955
7026, YISYOO , NC1=C(C#N)C(CC(=C1C#N)C1CC1)c1ccccc1N(=O)=O , P21/c ,1,0,1.38813578074,0.7040935672509999
7027, KIQTEL , CN1Cc2c(C1)c(c(N(C)C)c1ncccc21)N(=O)=O , P-1 ,1,1,1.40619895308,0.7179449922159999
7028, ZEZTIH10 , CC(C)C(N1C(=O)c2ccccc2C1=O)C(=O)N1CCC2=C(Nc3ccccc23)C1c1ccc(cc1)N(=O)=O , P21 ,0,0,1.2984186205700001,0.654595452142