ID,name,smiles,space_group,inversion_symmetry,beta_packing,density,packing_coefficient
10262, AMNAPH , CC1CC2CC(C)C(=O)N(O)C2([N+](=C1N)[O-])c1ccccc1 , P21/n ,0,0,1.32470442534,0.619224477618
10263, CIMGAI , CC1=C(C(c2ccc(cc2)N(=O)=O)C2=C(CC(C)(C)CC2=O)N1)C(=O)OC1CCCCC1 , P21/c ,1,0,1.28088999167,0.681017704146
10264, ANUCUJ , CCN(CC)c1ccc(cc1)C=C(C#N)c1ccc(cc1)N(=O)=O , P21/c ,1,0,1.28796424525,0.693447293447
10265, UZEQEX , CN1C(=O)C2ON3CCCC3C2C1=O , Pna21 ,0,0,1.4665611256400002,0.737712615167
10266, VIZMAU , CN(C)C1=NC(=Nc2ccccc2N(=O)=O)c2ccccc12 , P21/c ,1,0,1.37678492849,0.699724608582
10268, BODFEF , NC(CC(N)=NO)=NO , C2/c ,1,1,1.49414356849,0.7105560816500001
10269, LERZIT , CC(=O)C=C(O)C1=Cc2cc(ccc2OC1=O)N(=O)=O , P-1 ,1,1,1.5322856267700002,0.714506855374
10270, YONDEL , CC(C)NC(=O)Oc1ccc(cc1)N(=O)=O , C2/c ,1,0,1.3800265406799999,0.696683863351
10271, YEPVUL , COC1(CCC(CC1)OCc1ccccc1)CC(=NNc1ccc(cc1N(=O)=O)N(=O)=O)C(C)C , P-1 ,1,1,1.34060296575,0.704537949903
10272, JINBEN , N#CC(=CN1OC2CCC1C=C2)C#N , Pnam ,0,0,1.37198100303,0.727124907613
10273, QENQEF , O=N(=O)c1ccc(NN=C(C2CCc3ccccc3c3ccccc3C2)c2ccccc2)c(c1)N(=O)=O , P-1 ,1,1,1.3529293036899999,0.688084848485
10274, GEVLEZ , COc1cc(C(=O)NCc2ccccc2)c(cc1OC)N(=O)=O , Pbca ,1,0,1.3239005160700001,0.660553012269
10277, IWUQEY , CCCCC1=[N+]([O-])C2(CC(=O)OC(C)(C)O2)C(C1=O)(c1ccccc1)c1ccccc1 , Pca21 ,0,0,1.27856746582,0.682658479321
10278, DNPBUB , CC(C)(C)c1cc(c(Oc2ccc(cc2N(=O)=O)N(=O)=O)c(c1)C(C)(C)C)C(C)(C)C , P-1 ,1,1,1.21729821179,0.659529619319
10279, CIYVIQ , CON1C(=C(C#N)c2ccc(C)cc12)C , P21/c ,1,0,1.2441008467,0.680377668309
10280, ZESPAO , Cc1cc2c(cc1C)C(C)(C=CC2(C)N(=O)=O)C(N(=O)=O)(N(=O)=O)N(=O)=O , P21/c ,1,0,1.5265084541999998,0.719851494006
10281, ECUPIE , OC(CC(=CN1CCCCC1=O)c1ccccc1)c1ccc(cc1)N(=O)=O , P21/n ,0,0,1.30313370094,0.673595963969
10282, BOWSIP , CC(=O)C(C)=NNc1ccc(cc1)N(=O)=O , P21/n ,0,0,1.37214410251,0.6852083623049999
10283, ASEYIG , OC(=O)C1CCCN1c1ccc(cn1)N(=O)=O , P21212 ,0,0,1.41374218212,0.631487606245
10286, DIBFUQ , Cc1cc(cc(C)c1NC(=O)c1c2ccccc2cc2ccccc12)N(=O)=O , Pna21 ,0,0,1.3760774341600002,0.7083447332420001
10287, EHUPII , CC(C)(C)OC(=O)N(N(C(=O)OC(C)(C)C)C(C#N)(c1ccccc1)c1cccc[n+]1[O-])C(=O)c1ccc(cc1)N(=O)=O , P21 ,0,0,1.28309720845,0.648594239812
10288, WUDKAJ , CCC1=[N+]([O-])C(C)(O)CC1(C)C , P21/c ,1,0,1.16400524749,0.671584440228
10289, LAHLIS , CC(=C)C1C(CCC1(CCCc1ccccc1)CCCc1ccccc1)OC(=O)c1cc(cc(c1)N(=O)=O)N(=O)=O , P21/c ,1,0,1.17724124797,0.632276770357
10290, FASNOF , COc1ccc(nc1)C1(CCCCC1)CNC(=O)C(C)(CC1=CNc2ccccc12)NC(=O)Nc1ccc(cc1)N(=O)=O , P212121 ,0,0,1.26599733316,0.653058676654
10292, LAVXIQ , CC(C)c1ccc(C)c(C=NO)c1O , P21/n ,0,0,1.2082546633600002,0.667732310315
10293, PUBMUU07 , O=N(=O)N1C2C3N(C1C1N(C(C(N3N(=O)=O)N1N(=O)=O)N2N(=O)=O)N(=O)=O)N(=O)=O , P21/n ,0,0,1.9534134167,0.7350732106829999
10294, GODKAM , CC1C2CCC(C2)C1(C)C(C)=NO , C2/c ,1,0,1.10864494371,0.646622924401
10295, MOVVAV , Cc1cccc(c1)N(=O)=O , P21/c ,1,0,1.31955037136,0.699509366637
10297, EHALUV , CC(C)(C)N([O])c1ccc(cn1)c1ccccc1 , P21/c ,1,0,1.2433408342399999,0.701295503512
10298, EHOMIY , O=N(=O)c1ccccc1C=NOCCCCON=Cc1ccccc1N(=O)=O , P21/c ,1,0,1.4324379570899999,0.717841968202
10299, EYABAH , CC1(C)CCC(C)(N1[O])c1ccc(O)cc1 , P212121 ,0,0,1.1804664096100002,0.654776936027
10300, HOFNEW01 , Oc1ccc(cc1C=NNC(=O)CC1=CNc2ccccc12)N(=O)=O , Pbca ,1,0,1.4307091239399998,0.697826781719
10301, WUTWIT , O=C(N1OC2CCC1C=C2)c1ccccc1 , P21/c ,1,0,1.3491010673,0.715635451505
10303, DOZKUZ , Cc1ccccc1N1C(=O)C2(CCCC2)C(=N1[O])C , Pbca ,1,0,1.24152387728,0.657409960292
10304, BAQLIO , CC(=O)CC(C(C1OC(COC(C)=O)C(OC(C)=O)C(OC(C)=O)C1OC(C)=O)N(=O)=O)c1ccccc1 , P1 ,0,1,1.3130387835600001,0.662106446777
10306, EFOFOV , O=N(=O)c1ccc(Nc2c(cc(c3cccnc23)N(=O)=O)N(=O)=O)cc1 , Pna21 ,0,0,1.57814712462,0.711680849289
10307, YOVKAW , COc1ccccc1NC(=O)C1(CC1)C(C)=NO , P21/c ,1,0,1.3345510413400001,0.6999436605920001
10308, EHIKEM , OCC1(O)C2CON(Cc3ccccc3)C2C(O)C1OCc1ccccc1 , P212121 ,0,0,1.32596913746,0.6915980989470001
10309, KESWUD , COc1ccc(cc1)C1N(OC(N2C=Cc3ccccc23)C1=C)c1ccccc1 , P21/c ,1,0,1.2962655397299998,0.692356228592
10310, CELKEM , CON1C(=O)C2C3CC(C=C3)C2N2C(=O)CCC12C , P21/n ,0,0,1.3801457167299997,0.7195581131000001
10311, SIBKAQ , CC(C)C1CCC(C)CC21N(C)C(=O)C1CC(ON21)C(C)O , P21 ,0,0,1.13645632382,0.635154536069
10313, FULJEB , CC(OC(C)=O)C(C(C)OC(=O)C12CCC(C)(C(=O)O1)C2(C)C)N(=O)=O , P21 ,0,0,1.28439557391,0.6827955333079999
10314, ACETUA , CC(C)Oc1c(OC(C)=O)c(ccc1N(=O)=O)C(O)=O , P-1 ,1,1,1.4763673389399998,0.7111348528020001
10315, YEBFEQ , COC1(OC)C2CC3CCCC(OC(=O)c4cc(cc(c4)N(=O)=O)N(=O)=O)C3(C=C2)C1=O , P-1 ,1,1,1.41945097615,0.6879494382019999
10316, UJUKIT , CC(=NO)c1cccc(c1)C(C)=NO , P21/n ,0,1,1.36216209556,0.723335530653
10317, PANJOE , O=N(=O)c1ccc2N=CN(CCc3ccccc3)c2c1 , P21/c ,1,0,1.33996296456,0.678928917894
10318, JAHLIN , CC(=O)OC1COC(N2C=CC=N2)C(=NO)C1OC(C)=O , P21 ,0,1,1.42289252897,0.6885336966769999
10319, LIGHER , O=N(=O)c1ccc(OCc2ccc(cc2)c2ccc(COc3ccc(cc3)N(=O)=O)cc2)cc1 , P-1 ,1,1,1.3890230333000002,0.686393289842
10321, TOKXUN , CCC1OC(=O)C(C)C(OC2CC(C)(OC)C(OC(C)=O)C(C)O2)C(C)C(OC2OC(C)CC3C2OC(=O)N3C)C(C)(O)CC(C)C(=NOCC=C)C(C)C2OC(=O)OC12C , P212121 ,0,0,1.20307963265,0.641344235384
10322, KUZRED , O=N(=O)N=C1NCN(CC2CCCO2)CN1CC1=CC=CO1 , P21/n ,0,1,1.38659437611,0.6850355997830001
10323, HAPYUU , COCC1CC(CN1C(=O)C(C=Cc1cccc(OC)c1)C(CCCOC(=O)c1ccc(cc1)N(=O)=O)C(C)=C)OC(C)(C)C , P21 ,0,0,1.2253603387899998,0.6714240362809999
10325, MAPJOE , CCC(CC)(NC(=O)Cc1ccc2ccc3cccc4ccc1c2c34)C(=O)NC(CC)(CC)C(=O)OCc1ccc(cc1)N(=O)=O , P21/n ,0,0,1.26338957271,0.6891377165279999
10326, SIKTEL , COC1N(c2ccc(cc2)N(=O)=O)C(=O)C(C)(C)C1(O)c1ccccc1 , P21/n ,0,0,1.3666112604,0.702671312427
10327, NACPON10 , CC(=O)c1ccc(cc1)N(=O)=O , P21/c ,1,1,1.4039406532799998,0.708281290271
10328, YICNAA , O=N(=O)c1ccc(cc1)N1N=NN=C1N1N=Nc2ccccc12 , P21/c ,1,1,1.5256223206600001,0.700427667218
10329, ZORHIX , CC1=NNC(=N1)C1=N([O])C(C)(C)C(C)(C)N1[O] , P21/c ,1,0,1.30119084125,0.67456445993
10330, IPEZUZ01 , O=N(=O)Nc1nc(N=[N+]=[N-])nc(N=[N+]=[N-])n1 , Pnma ,1,1,1.84823246053,0.7334291463060001
10331, QEDXAY , OCC(O)C(O)C(O)C(O)C=NO , P1 ,0,1,1.50359445266,0.709202657807
10332, XUDROF , NN1N=NC(=C1C1=C(N=NN1N)N(=O)=O)N(=O)=O , I41/a ,1,0,1.8758010621099999,0.7665388055589999
10333, KAQRIF , CC(C)OC(=O)C(C)(N(NC(=O)OC(C)(C)C)C(=O)OC(C)(C)C)N(=O)=O , P-1 ,1,1,1.21074648435,0.635794743429
10334, AHIDIG , CC(=O)N(N(c1ccccc1)c1ccccc1N(=O)=O)C(C)=O , P21/c ,1,0,1.32127587589,0.661361283644
10335, TAFKET , Cc1ccc(C)c(c1)c1cc(cc(c1)N(=O)C(C)(C)C)N(=O)C(C)(C)C , P-1 ,1,1,1.1946925277,0.694997212932
10336, SOLTAP , Oc1ccc(cc1[NH+]=Cc1ccccc1[O-])N(=O)=O , P21/c ,1,0,1.48384973706,0.712116914516
10337, CILSIA , O=N(=O)c1ccc(cc1)N1CCCC1 , Pbca ,1,0,1.32417948351,0.7352782324060001
10338, AJUNIE , CCCCCCCCCCOc1ccc(cc1)C1=NC2(CCCCC2)N([O])C1(C)C , C2/c ,1,1,1.13019233093,0.671641838192
10339, FACQAE , CC1=[N+]([O-])ON=C1C=NN1N=NNC1=NN(=O)=O , P21/c ,1,0,1.7117636327599999,0.717771084337
10341, ROYVIM , COC(=O)C(Cc1cccc(c1)C#N)C(C)NC(=O)c1ccc(cc1)c1cc[n+]([O-])cc1 , C2 ,0,0,1.304055963,0.689961849513
10342, QUFFIG , CC1(C)N([O])C(=[N+]([O-])C1(C)C)c1ccc(O)c(c1)C1=[N+]([O-])C(C)(C)C(C)(C)N1[O] , P21/n ,0,0,1.2647666613500002,0.6680357522879999
10343, REHLUL , CCOc1ccc(cc1)C(=O)Oc1ccc(OC(=O)c2ccc(OCC)cc2)c(c1)C(=O)OCc1ccc(cc1)N(=O)=O , P-1 ,1,1,1.37867478396,0.688084205387
10344, EQURUF , CC(=O)Nc1ccc(OC(=O)C2CC(C)(C)N([O])C(C)(C)C2)cc1 , P21/a ,0,0,1.2307775097,0.658370712119
10346, TERZUO , COC(=O)C=Cc1cccc2NC=C(C(CN(=O)=O)c3ccccc3)c12 , P21/n ,0,0,1.38951684826,0.715277777778
10347, DUYHOV , CCCCCC(CCCCC)(CC(=O)NCCC[N+](C)(C)[O-])c1ccccc1 , P21/c ,1,0,1.0923770418799998,0.670659839027
10351, QUZNUV , O=CNCCc1ccc(cc1)N(=O)=O , P21/c ,1,1,1.34401822912,0.678626058126
10352, KAQPEA , CCOC(=O)C1=C2CCCCN2N=C1c1ccc(cc1)N(=O)=O , P21/c ,1,0,1.3533845666100002,0.704665298072
10354, ULASOP , O=C(OC1C2CC3CC(C2)CC1C3)c1cccc(c1)N(=O)=O , P-1 ,1,1,1.38118959425,0.707626863575
10355, LUDJOK , CC(C)OC12C=NOc3cccc(C=CC1=O)c23 , P-1 ,1,1,1.3718686774000002,0.7082388510959999
10356, DAKHIJ , Cc1ccc2N(Cc3cc(cc(c3OCc3ccc(cc3)N(=O)=O)C(C)(C)C)C(C)(C)C)Cc3cc(C)ccc3N(Cc3cc(cc(c3OCc3ccc(cc3)N(=O)=O)C(C)(C)C)C(C)(C)C)Cc2c1 , P-1 ,1,1,1.20408262786,0.6734125980269999
10357, AJIMAJ01 , CCOC(=O)C1(C(CN(=O)=O)c2ccc(OC)cc2)N(CCC1=O)C(=O)OC(C)(C)C , P212121 ,0,0,1.31589792306,0.6810495314589999
10358, YAFLAT , O=N(=O)c1ccc(cc1)C1CCC(CC1)=C1CCC(CC1)c1ccc(cc1)N(=O)=O , P21/n ,0,0,1.30376063942,0.6903099017380001
10359, YINFIM , COC(=O)C12CCCN1C(C(N2)c1ccccc1N(=O)=O)c1ccccc1N(=O)=O , P21/c ,1,0,1.3870079996200002,0.705402784781
10360, TAKQOM , Oc1ccc(cc1C(N1CCOCC1)N1CCOCC1)N(=O)=O , P21/n ,0,0,1.3998568219799998,0.7124844286450001
10361, XILVOE , OC(C(O)=O)c1ccccc1N(=O)=O , P21/c ,1,0,1.6010849317500002,0.742704081633
10362, SEMTAF , OC(=O)Cc1ccc(cc1)N(=O)=O , Pbca ,1,0,1.4001449607499998,0.670659722222
10363, FEPYEG , CN1C=C2C(=C(C=C(C2=C1)N(=O)=O)N(=O)=O)C , P21/c ,1,0,1.55476866206,0.7509289717350001
10364, KEDBEB , CC1COC2(OC3CC4C5CCC6CC(CCC6(C)C5CCC4(C)C3C2C)OC(C)=O)C(C1)=NO , P21 ,0,0,1.17951495014,0.650570934256
10365, ZADXAG , COc1ccc(cc1)C12ON(C(CC(=C1)NC(=O)c1ccccc1)C12OCCO1)C(=O)c1ccccc1 , P21/c ,1,0,1.33853884296,0.679859505379
10367, IQIKIC , CN(C)C=Cc1ccc(cc1N(=O)=O)C#N , P-1 ,1,1,1.34222249561,0.7027027027030001
10369, GOXKAF , CC(=O)NN(C(=O)c1ccccc1O)c1ccc(cc1)N(=O)=O , Pbca ,1,0,1.42648172574,0.6843357602619999
10370, JEMSUP , NC(C=NO)=NO , P212121 ,0,0,1.51592648343,0.704745254745
10371, JUBKOI , CC1(C)OC2OC3COCC4CC3(C2O1)N(Cc1ccccc1)O4 , P212121 ,0,0,1.3374312069399998,0.676610922147
10372, ALOTUS , CCOC(=O)C(CC=C)(CC=C)C(=O)c1ccc(cc1)N(=O)=O , P-1 ,1,1,1.29556694544,0.68438538206
10373, QATHUP , CC(=NN1C(=C(C)C(=C1C)C)C)C(C)=Nc1ccc(cc1)N(=O)=O , Pbca ,1,0,1.2692957855,0.695072051236
10374, COMGAO , O=N(=O)c1ccc2c3ccccc3c2c1 , P21/c ,1,1,1.42448663355,0.707367076696
10375, SAKGIW , CON1C(=O)c2ccccc2C1=CC(=O)OC , P21/c ,1,1,1.3898578223,0.695517468688
10376, ENIMIX , CCON(C)C12c3ccccc3C(c3ccccc13)c1c(C)ccc(C)c21 , P21/c ,1,0,1.25343902348,0.7006558738070001
10377, ZZZMGS02 , Cc1ccc(Nc2c(cc(cc2N(=O)=O)N(=O)=O)N(=O)=O)cc1 , P21/a ,0,0,1.55518585764,0.7204856482719999
10378, GAZXAG , CC(=O)OCC1(OCC(OC(C)=O)C(C1OC(C)=O)N(=O)=O)OCc1ccccc1 , P212121 ,0,0,1.3549424593900001,0.676596710153
10380, XENFIF , [O-][N+](Cc1ccccc1)=Cc1ccccn1 , Pbcn ,1,0,1.32126828818,0.713655206401
10381, JOPHAX , CCC1(CO)NC2CC3(C4CC1C2CO4)C(=O)N(OC)c1ccccc31 , P21 ,0,0,1.28244130006,0.670280966866
10382, FESNEW17 , COc1ccc(cc1N(=O)=O)N(=O)=O , P21/n ,0,0,1.60497551104,0.7303976217020001
10384, UPAGOI , OC1C(Nc2ccccc2N(CC2CC(=NO2)c2ccccc2)C1=O)c1ccccc1 , P-1 ,1,1,1.29676558545,0.667716866205
10385, OJIRIJ , COc1ccc(c2cnc3ccccc3n2)c(c1)N(=O)=O , P21/n ,0,1,1.41962600979,0.698712998713
10386, OCHTET17 , O=N(=O)N1CN(CN(CN(C1)N(=O)=O)N(=O)=O)N(=O)=O , P21/n ,0,1,1.9007686591599997,0.7719960219959999
10387, TOGZAS , CN(C)c1ccc(cc1)N1C=C(C(c2ccccc2)C(=C1)N(=O)=O)N(=O)=O , Pna21 ,0,0,1.38968161861,0.702426070247
10389, TIPVAR01 , ON=C1NC(=NO)c2ccccc12 , Pnma ,1,0,1.47484673766,0.701158564289
10390, ROCPOP , O=C1OC(C(COC(=O)c2cc(cc(c2)N(=O)=O)N(=O)=O)C1Cc1ccc2OCOc2c1)c1ccc2OCOc2c1 , P21 ,0,0,1.5393969333200002,0.71002276284
10392, PAWDEY , O=N(=O)C1Cc2ccccc2OC1c1ccccc1 , P-1 ,1,1,1.3528876617200003,0.683018249116
10393, HEKTEZ , O=C(NC1CCCCCCCCCCCCC(C1)c1ccc(cc1)N(=O)=O)c1ccccn1 , P-1 ,1,1,1.22541502934,0.690243778439
10394, VOBTOV01 , C[N+]([O-])=Cc1ccccc1 , Pbca ,1,0,1.26948034732,0.736611912393
10396, LOKZER , COC(=O)c1ccc(NC(=O)c2ccc(NC(=O)c3ccc(c(OCC(=O)OC(C)(C)C)n3)N(=O)=O)c(OCC(=O)OC(C)(C)C)c2)c(OCC(=O)OC(C)(C)C)c1 , P21/c ,1,0,1.3724361416799997,0.697049912544
10397, ROLKIM , O=NC1=C(C=C2C=CC=CN12)c1ccccc1 , P21/c ,1,0,1.3576379765,0.7098639455779999
10398, OBEMIT , O=N(=O)c1ccc(Oc2cccc3ccccc23)cc1 , Pbca ,1,0,1.38968048347,0.703944508838
10399, APERUK , CC(C)=NOCc1ccccc1OC(=O)c1ccccc1 , Pbca ,1,0,1.23991744347,0.661450571287
10400, WOZLOO , CN(CN1N=NC(=N1)C(N(=O)=O)(N(=O)=O)N(=O)=O)N(=O)=O , Pbca ,1,0,1.79579581433,0.723225228947
10401, WIQDIJ01 , O=N(=O)c1ccc(CC#N)cc1 , P21/c ,1,0,1.42721758454,0.7210867551710001
10402, MUKKAG , COc1ccc(c(OC)c1)C1(OCc2ccc(cc12)N(=O)=O)c1ccc(OC)cc1OC , P21/c ,1,0,1.36482228933,0.686683958324
10404, FASWON , CCN(c1ccccc1)c1ccc(cc1N(=O)=O)N(=O)=O , P21/c ,1,1,1.4112518123,0.701105200352
10405, DNBZIL01 , O=C(c1ccc(cc1)N(=O)=O)C(=O)c1ccc(cc1)N(=O)=O , P-1 ,1,1,1.6006526505599998,0.744430998162
10406, FEVGAR , COc1cccc(c1)C1C(C)C(=O)C(C)ON1C , P21/c ,1,0,1.27178344332,0.6997558707279999
10408, NOADFU , COC(=O)C1(OC(C=C1)(N(=O)=O)N(=O)=O)C12CC3CC(CC(C3)C1)C2 , P21/n ,0,0,1.3846240507299998,0.6890239481370001
10409, FEFBAU , CCN1C(OC)C(CN(=O)=O)NC(=C1C#N)C#N , P-1 ,1,0,1.30425967902,0.677134917152
10410, BEKSOC , CC(C)OC1=NOC(=C1)CNC(=O)OC(C)(C)C , Pbcn ,1,0,1.19331859216,0.6913069370010001
10411, SELGUN , CCCCC1C(CC2CC12N(=O)=O)(C(=O)OC)C(=O)OC , P21 ,0,0,1.31562164469,0.6922775263950001
10412, NBZOAC15 , OC(=O)c1ccc(cc1)N(=O)=O , C2/c ,1,0,1.6102295183700002,0.7435270696230001
10413, WAJWUA , CN1N(c2ccccc2)C(=O)C(=C1C)N=Cc1ccc(cc1)N(=O)=O , P-1 ,1,1,1.38056257191,0.695454879483
10414, SIGZEN , Cc1c(C(=O)C=Cc2ccccc2)n([O])c2ccccc2n1[O] , P1121/b ,0,0,1.38516100054,0.711700986701
10415, IHEJAI , COC(=O)C1(C)CC2(C)N(O1)C(COC2=O)c1ccccc1 , P21 ,0,0,1.22141210029,0.634441707718
10418, WIGYOC , Oc1ccc(NC(=O)c2ccc(cc2)N(=O)=O)cc1 , P21/c ,1,1,1.53894050512,0.7455078373899999
10419, ETICEP , OC(c1ccc(cc1)N(=O)=O)C1=CCCCC1=O , P21/n ,0,0,1.36707212276,0.684980135845
10420, QALWOR , O=N(=O)OCC(CON(=O)=O)N(C(CON(=O)=O)CON(=O)=O)N(=O)=O , P212121 ,0,0,1.81653824227,0.75361381619
10421, KOVBOM , OC1C(ON=C1C1COC2(CCCCC2)O1)c1cc(O)c2ccccc2c1 , P212121 ,0,0,1.4185303095500001,0.7042319160780001
10422, FENCEG , None , Cmca ,1,1,1.4277328359700001,0.653361344538
10423, JURQIW , CCCCOC1CC(OC(=O)c2ccccc2)C2C(C(ON2O1)OC(C)=O)C(=O)OCC , Fdd2 ,0,0,1.33863937432,0.690574587496
10424, EZESUY , O=N(=O)c1ccccc1C1=NNC=C1 , P21/n ,0,0,1.41179215315,0.6960377984080001
10425, CADDIU , O=C(C1=CC(=NO1)c1ccccc1)C(=NNc1ccc(cc1)N(=O)=O)c1ccccc1 , P21/n ,0,0,1.39286478118,0.690576287199
10426, GEJXAU , CN(CN(CN(CN(C)N(=O)=O)N(=O)=O)N(=O)=O)N(=O)=O , P21/c ,1,0,1.59894065248,0.650529100529
10428, QUXVIQ , CC(C)(C)OC(=O)C(=NOC(=O)c1ccccc1)C#N , P21/n ,0,0,1.308953215,0.678633311674
10429, WUMHES , CC(C)C1N(CC2CC12N(=O)=O)C=O , P-1 ,1,1,1.27699925999,0.657784743992
10430, PINCVN , CC1(C)C2CC(OC(=O)c3ccc(cc3)N(=O)=O)C(=C)C1C2 , P21 ,0,0,1.34353963066,0.7025841308399999
10431, SEDTUQ02 , NC(N)=C(N(=O)=O)N(=O)=O , P21/n ,0,0,1.9240343256299999,0.7930432140960001
10432, ENIZAC , O=N(=O)c1cccc(c1CC#N)N(=O)=O , Pccn ,1,0,1.50860428477,0.733803033935
10433, JEDSUG , O=C1N(CCN1N(=O)=O)N(=O)=O , P212121 ,0,0,1.78868605667,0.740714285714
10434, PACCEB , O=N(=O)OC1CCC2C(CCC1N2c1ccccc1N(=O)=O)ON(=O)=O , P212121 ,0,0,1.52475252862,0.723550958845
10435, LAYPOR , None , P21/n ,0,0,1.25550908388,0.7237918569249999
10436, HAHBEA , COc1ccc(cc1)C1C(C)C(Nc2cccc(c12)N(=O)=O)c1ccccc1 , P21/c ,1,0,1.27464762124,0.661350341431
10437, UQIYIE , O=C(C1OC1c1cccc(c1)N(=O)=O)c1ccccc1 , P21/c ,1,0,1.45240258393,0.724964821764
10438, FIJQUM , CC(C)CCCC(C)C1CCC2C3C(CCC12C)C1(C)CCC=CC1=CC3=NNc1ccccc1N(=O)=O , C2221 ,0,0,1.15641725648,0.6500641794500001
10439, SAGSEB , CC1=NN(c2ccccc2)C(=O)C21C(CC(=O)C2=Cc1ccccc1)c1ccccc1N(=O)=O , P-1 ,1,0,1.36630772252,0.705236933483
10441, SOMGUX , CN1OC(C)(C)CC1(C#N)C1COC2(CCCCC2)O1 , P21 ,0,0,1.15296973144,0.624981242497
10442, JAFTUI , CC1(C)OC2OC3C(OC(=O)c4ccccc4C(=O)OCCCCC4CC3=NO4)C2O1 , C2 ,0,0,1.36415447861,0.674163679809
10444, CUKCAM21 , OC(=O)c1cc(cc(c1)N(=O)=O)N(=O)=O , C2/c ,1,0,1.7577820734,0.765388783776
10445, VOBVAL , CC12c3ccccc3C(C)(c3ccccc13)C(C#N)(c1ccc(cc1)N(=O)=O)C2(C#N)C#N , P-1 ,1,1,1.38587025427,0.705469106247
10447, DNITBZ11 , O=N(=O)c1ccc(cc1)N(=O)=O , P21/n ,0,0,1.6181289343,0.733330401126
10448, MEDNIU , CC(O)=C(N1N=C2COc3c(cc(cc3N(=O)=O)N(=O)=O)N2C1=O)C(C)=O , Pna21 ,0,0,1.6206819356600002,0.7151085511740001
10449, ERIWIL , CC1=C(C(=CC(=O)N1)C)N(=O)=O , P21/n ,0,0,1.4429588840799998,0.700995760623
10450, FESQAX , CCOC(=O)C1CCC2(O)C(C1)C(=O)CCC2N(=O)=O , P21/c ,1,1,1.38701063851,0.698714497241
10451, CEFNEI , O=C1CCCCC1C(Nc1ccccc1)c1ccccc1N(=O)=O , P21/c ,1,0,1.29672019044,0.679785107446
10453, MESSEI , CCC(OC(=O)c1ccc(cc1)N(=O)=O)C1(COc2ccccc2C1=O)N=[N+]=[N-] , P-3 ,1,0,1.29687439176,0.614599471831
10454, XIVXEF , CC1=CCC2(C(C1)C1=[N+]([O-])ON=C1C1(CC=C(C)CC21)N(=O)=O)N(=O)=O , P21/c ,1,0,1.4701272283000002,0.703967542577
10457, QORRUL , O=N(=O)C(CNc1nnc(NCC(N(=O)=O)(N(=O)=O)N(=O)=O)nn1)(N(=O)=O)N(=O)=O , Pna21 ,0,0,1.8856237930000002,0.749832112332
10458, XUMWOR , COC(=O)C1CC2(ON=C(C2C#N)c2c(C)cc(C)cc2C)C(=O)O1 , P21/c ,1,0,1.2892338872600002,0.652335839083
10459, MOMHAZ , O=N(=O)c1ccc(cc1)C1=C2COCc3ccccc3N2N=N1 , P-1 ,1,1,1.49178386101,0.713247863248
10460, KIKFIU , COc1cccc(c1)C(Cc1ccccc1)=NO , Pbca ,1,0,1.26360087877,0.678072686269
10461, YISCEI , COc1ccc(cc1)C1=N([O])C(C)(C)C(C)(C)N1[O] , Cc ,0,0,1.2424248843899999,0.684408861592
10462, VIGJIG , CC1(C)C(NO)N(O)C(=O)c2ccccc12 , P21/c ,1,0,1.39116621507,0.709893048128
10463, FUSJOT , O=N(=O)C1=CC2=[N+]([O-])ON=C2C2=C1C(=NO2)C1OCCO1 , P21/n ,0,0,1.78771386488,0.7528097587720001
10465, PARDOC , CCOC(=O)C1C(N(OC21C(=O)Nc1ccccc21)c1ccccc1)c1ccc(cc1)N(=O)=O , P-1 ,1,1,1.42404172614,0.7040643725390001
10467, JUBKUO , CC(=O)OC1CC2CC3(C(C1)OC1OC(C)(C)OC31)N(Cc1ccccc1)O2 , P21 ,0,0,1.2904014929899998,0.666198439242
10468, NIFBUA , CN1C(=O)N(C)c2nc(N)c(C#N)c(c3ccc(cc3)N(=O)=O)c2C1=O , P21/n ,0,0,1.49282108352,0.702349758106
10469, FUAZOX10 , CC1=CN(C2CC(O)C(CO)O2)C(=O)N=N1[O] , P21 ,0,0,1.54279547258,0.728120597351
10470, DAVQOH , O=C1c2cc(cc(C#N)c2c2c(cc(cc12)N(=O)=O)C#N)N(=O)=O , P21/n ,0,0,1.6315264197200001,0.7312525289480001
10471, YAFHAO , Cc1cc(C)c(c(C)c1)C1=NOC2(C1)N(N=C(c1ccccc1)C12CC(=NO1)c1c(C)cc(C)cc1C)C(=O)c1ccccc1 , Cc ,0,0,1.03155212812,0.561835296035
10472, OKIRUX , O=C1NC(=O)N=C(N1)OCC(N(=O)=O)(N(=O)=O)N(=O)=O , P21/c ,1,0,1.8724453454400003,0.734855136084
10473, OCHTET18 , O=N(=O)N1CN(CN(CN(C1)N(=O)=O)N(=O)=O)N(=O)=O , P21/n ,0,1,1.9193265179499999,0.781743727198
10474, AQOZUD , [O-][n+]1ccccc1c1ccccc1 , P21/c ,1,0,1.32915226517,0.7045682001610001
10475, IQILAW01 , ONC(=O)CCCCCCC(=O)Nc1ccccc1 , P21/n ,0,0,1.2371524549,0.6726615553120001
10476, RORJUF , CON=Cc1ccc(OC)c2OC(=C(c3ccccc3)c12)c1ccccc1 , P21/c ,1,0,1.29551629005,0.690484434771
10477, GUVYAY , O=N(=O)c1ccc2N3CCCCC3Cc2c1 , P21/n ,0,0,1.31104911199,0.680009863554
10478, YATGUX , CC1=NN(C2=C1C(c1cccc(c1)N(=O)=O)C1=C(N2)c2ccccc2OC1=O)c1ccccc1 , P-1 ,1,1,1.46980722552,0.723114125458
10479, XOQVII , CC1CC2CC3C4CCCN(C)CCCC24C2(C1)NC(=O)ON32 , P212121 ,0,0,1.27790356124,0.703707735413
10481, RAKXAE , CCOC(=O)C1=NN2C(=C1c1ccc(cc1C)N(=O)=O)COc1ccccc21 , P-1 ,1,1,1.38778526681,0.679060947396
10482, EVIQEF , CCOC(=O)NC(=O)NC1=NO[N+](=C1N=Nc1c(C)cc(C)cc1C)[O-] , P-1 ,1,1,1.39590596809,0.679865527292
10483, QELJEZ , [O-][n+]1nc(ccc1N1CCCC1)c1ccccc1 , P21/c ,1,0,1.34672864262,0.7212871190350001
10484, WOMYOM , ON=C(c1ccccc1)c1cccnc1 , P21/n ,0,0,1.26917920074,0.665195441663
10485, PAHXIH01 , CC1(C)C2=CC=C(N2)C(C)(C2=CC=C(N2)C(C)(C)C2=CC=C(N2)C(C)(C2=CC=C1N2)c1cc(cc(c1)N(=O)=O)N(=O)=O)c1cc(cc(c1)N(=O)=O)N(=O)=O , C2/c ,1,1,1.36229231592,0.676445329878
10486, UJUBUY , CC1(C)CCCC2(C)C1CC=C2C(O)C1OC(C)(C)OC1(COCc1ccccc1)C(=O)ON1C(=O)c2ccccc2C1=O , P21 ,0,0,1.24208565216,0.655860955493
10487, YAZSUQ , CCOC(=O)C1NC(CC(=O)OC)(C(=O)OC)C(C#N)(C1c1cccc(c1)N(=O)=O)C(=O)OCC , P-1 ,1,1,1.36256413898,0.667249459702
10489, NELKEX , CC12CCCC3(CCCCC13)c1cc(OCc3ccc(cc3)N(=O)=O)ccc1C2 , P21 ,0,1,1.2489610864899998,0.671812314669
10491, RECNOF , ON1N=NN=C1C1=NOC=N1 , Pbca ,1,0,1.68905045944,0.69138289247
10492, TEGXIP , CC1(C)NC2(CCCCC2)N([O])C1(C)C , Pbca ,1,0,1.12916378668,0.666155279503