ID,name,smiles,space_group,inversion_symmetry,beta_packing,density,packing_coefficient
10493, IBUQAX , O=N(=O)c1ccc2c3ccccc3C3(C=CC=C3)c2c1 , P21/n ,0,0,1.3114816388700001,0.673925591646
10494, YABTEA , OC(=O)c1cccc2Oc3c(Oc12)cccc3N(=O)=O , C2/c ,1,1,1.65623103528,0.735351190696
10495, APEMIT , COC(=O)c1ccc(cc1)N(O)c1ccccc1c1ccccn1 , P-1 ,1,1,1.33407143185,0.682565312046
10497, YAKMUU , O=N(=O)c1cccc(CN(Cc2cccc(c2)N(=O)=O)Cc2cccc(c2)N(=O)=O)c1 , P21/n ,0,1,1.38023573678,0.675129836935
10498, HULWEQ , None , P212121 ,0,0,1.33132126773,0.6911953352770001
10499, IZIPUD , CC(=NNc1ccc(cc1N(=O)=O)N(=O)=O)c1ccc(O)cc1 , P21/n ,0,0,1.49064165395,0.707391175474
10500, FUPSUE , None , P21/c ,1,1,1.30336046887,0.6783842022319999
10502, RAJFAJ , O=C(OC1CC=CCC21CCCCC12OCCO1)c1ccc(cc1)N(=O)=O , P21/n ,0,1,1.3801399595800001,0.708605569188
10503, TNBMAN10 , COc1ccc(cc1)N(C)Cc1c(cc(cc1N(=O)=O)N(=O)=O)N(=O)=O , P21/c ,1,1,1.48298743532,0.661436154699
10504, MUFJOO , O=Cc1c(Oc2ccc(cc2N(=O)=O)N(=O)=O)ccc2ccccc12 , P21/c ,1,0,1.49547564518,0.6971188475390001
10505, LEQXEL , COCCOc1c2Cc3cc(cc(Cc4cc(cc(Cc5cc(cc(Cc1cc(c2)N([O])C(C)(C)C)c5OCCOC)N([O])C(C)(C)C)c4OCCOC)N([O])C(C)(C)C)c3OCCOC)N([O])C(C)(C)C , P21/c ,1,0,1.21644828708,0.6738650657520001
10506, WETGUA , CNC(=O)Nc1ccc(cc1N(=O)=O)N(=O)=O , P-1 ,1,0,1.62390796263,0.746820294453
10508, OFEXOM , O=Nc1c(NCc2ccccc2)nc(OCc2ccccc2)nc1OCc1ccccc1 , P21/n ,0,0,1.35634457973,0.702874089971
10509, VAJGES , OCC(O)C1OC(CN(=O)=O)C(O)C1O , P212121 ,0,0,1.5718699244999998,0.730512770835
10510, GIYYET , CCOC(=O)C1(Cc2ccccc2)OC(OC1c1ccc(cc1)N(=O)=O)c1ccc(cc1)N(=O)=O , P21/c ,1,0,1.4235069088999999,0.6773538961040001
10511, LUDFAR , O=CC=COC=CC1=NOC(=C1)N(=O)=O , P21/c ,1,1,1.50659374525,0.693397177419
10512, JEXKUS , CCOC(=O)C1=C(C)NC(=C(C1c1cccc(c1)N(=O)=O)C(=O)OC)C , P21/c ,1,0,1.37764085863,0.703545343545
10513, BARTAQ , COC(=O)C=C(OC(c1cccc(c1)N(=O)=O)=C1N(CCN1c1c(C)cc(C)cc1C)c1c(C)cc(C)cc1C)C(=O)OC , P21/c ,1,0,1.27149339403,0.6724995218970001
10514, REXDAC , Cc1ccc(cc1)N1CCC(=N1)C1=CC(=NO1)c1ccccc1 , P21/c ,1,0,1.3464206791100002,0.7080846806100001
10515, JIFVOM , O1N=C(c2ccccc2)C(=C1c1ccccc1)C=Cc1ccccc1 , Pbca ,1,0,1.2406308185400001,0.665848911792
10517, UKEVOX , CCCCCCCCCCCCOc1cc(ccc1NN=CC1=C(C#N)C(OC1(C)C)=C(C#N)C#N)N(=O)=O , P-1 ,1,1,1.25725308092,0.686801391665
10518, XUZNAI , CN1c2ccccc2N=C1C1=NC(C)(C)C(C)(C)N1[O] , P21/c ,1,0,1.2057571843700001,0.648778195489
10519, OVUYEL , Cc1ccc(cc1)C(=CN(=O)=O)N1CCCCC1 , P21/c ,1,1,1.23687116297,0.67374284854
10520, QECZAZ , CN(C(=O)c1ccc(cc1)N(=O)=O)C(C1CC1)(C1CC1)C1CC1 , P-1 ,1,1,1.30233385469,0.707530930608
10521, XIXBEM , CC1CCC=C2C(CCCCC2OC(=O)c2ccc(cc2)N(=O)=O)CC1=O , P21/c ,1,0,1.2304329864799999,0.647625623322
10522, BETVUR , O=N(=O)c1ccc(cc1)C1NCC2CCCCC2O1 , P21/c ,1,1,1.30553900668,0.688399532116
10523, QONSET , CN(CNC(=O)NCN(C)N(=O)=O)N(=O)=O , Pccn ,1,0,1.58119317076,0.735735098922
10524, NEWMEK , CCOC(=O)C1C(ON(C1C(=O)Nc1ccccc1)c1ccccc1)N1C=Cc2ccccc12 , P-1 ,1,1,1.31368663377,0.676557687752
10525, YUJCAH , CC(=O)NC1=CC(=O)C=CC1=NO , P21/n ,0,0,1.47125263111,0.7172061011900001
10526, ZUMHUM , CC(C)CNC(=O)C1(CC1)ONC(=O)C(ONC(=O)C(C)C)C(C)C , P212121 ,0,0,1.13805022498,0.6204935782559999
10527, CUPLAC , O=C1C=C(N(CCCc2ccccc2)c2ccc(cc12)N(=O)=O)c1ccccc1 , Pbca ,1,0,1.3179555353799999,0.6884510042599999
10528, EWIFIZ , O=N(=O)c1ccc(CC2CN3CCN4CCCN5CCN(C2)C3C45)cc1 , P21/c ,1,0,1.29443283301,0.6815751971170001
10529, GACBER , O=N(=O)C1C(=C1c1ccccc1)c1ccccc1 , P212121 ,0,1,1.25467301786,0.615705303445
10530, OXAPAG , CC1(CC2(C)N([O])c3ccccc3c3ccccc23)N([O])c2ccccc2c2ccccc12 , P21/c ,1,1,1.37830235632,0.728501835169
10531, ETELOG , COc1ccc(cc1)C1=C(N2C=CC=CC2=N1)c1ccc(cc1)N(=O)=O , P-1 ,1,1,1.38808857243,0.695286997983
10532, MUYLAT , CC1=NC(=O)N(C(=C1)C)c1cccc(c1)N(=O)=O , P-1 ,1,1,1.4104850011899999,0.714050082471
10534, OROYUR , COc1ccc(C#N)c(c1)N(=O)=O , P21/c ,1,1,1.44915108606,0.700053418803
10535, GIGLEN , O=C1C2ON3OC4C(C(=O)N(C4=O)c4ccc(cc4)N(=O)=O)C3(CCCCC#N)C2C(=O)N1c1ccc(cc1)N(=O)=O , C2/c ,1,0,1.2965949037200002,0.6084544635970001
10536, IHOQUT , CN1c2ccccc2c2cc(C=CC3=NC4=NON=C4N=C3c3ccccc3)ccc12 , P21/c ,1,0,1.3242511211799999,0.667930879365
10539, VELKIH , O=C(c1ccccc1)C(=Nc1ccc(cc1)N(=O)=O)c1ccccc1 , P21/c ,1,0,1.34022236394,0.6840949443979999
10540, CUMQEI , CC1=NN(c2ccccc2)C(=C1N=Nc1ccccc1N(=O)=O)N , C2/c ,1,0,1.39037299019,0.69126984127
10541, VIGPOR , CON(OC)C(N)=O , Fdd2 ,0,0,1.33039607376,0.6647640538930001
10542, VOSLAS , COc1ccc2nc(c[n+]([O-])c2c1)c1ccccc1 , Pbca ,1,0,1.41614286093,0.7259764171269999
10543, ULAWUB , CON1C(=O)NC(C1=O)c1ccccc1 , P21 ,0,0,1.36987859476,0.6765734265729999
10544, FIPBOY , COc1ccc2CCC(CC=Cc3ccccc3)(C(=O)c2c1)N(=O)=O , P212121 ,0,0,1.33411032016,0.698583410997
10545, GILFIS , CC1(C)OC2C3NOC(C4OC(=O)OC34)C2(CO)O1 , P212121 ,0,0,1.52367808055,0.70541409465
10546, GEFNAH , OC1=C(C(=O)Oc2ccccc12)N(=O)=O , Pca21 ,0,0,1.65948634563,0.735244922342
10547, QIHROO , CC(=O)OC1C2CON(C2C(OC(C)=O)C1OC(C)=O)c1ccccc1 , P21 ,0,0,1.3289180967799998,0.6858813700920001
10548, KOVHIM01 , O=N(=O)C(=C1NCCCCN1)N(=O)=O , P21212 ,0,0,1.49867311122,0.694103728448
10549, EHUXOU , Cc1ccc(cc1)C1C(=NOC21C(=O)Nc1ccccc21)c1ccccc1 , P21/c ,1,0,1.33451606154,0.7032523120290001
10551, PAVMOQ , NC(=NO)C1CC(=NN1c1ccccc1)c1ccccc1 , P-1 ,1,1,1.29878634537,0.685674603175
10552, FESNEW18 , COc1ccc(cc1N(=O)=O)N(=O)=O , P21/n ,0,0,1.60840726882,0.7314135140219999
10553, VOQSIE , Cc1cc(C)c(C)c(CON2N=Nc3ccccc23)c1C , P21/c ,1,0,1.28922786541,0.704702194357
10554, WELXOC , CC(C)(C)OC(=O)C(=O)C1(C)ON(C2Cc3ccccc3C12)c1ccccc1 , P21/c ,1,1,1.27189543337,0.675954153374
10556, FAFSEK , CN1c2ccc3ccccc3c2C(C)(C)C21Oc1ccc(cc1C=C2)N(=O)=O , P212121 ,0,0,1.27322866578,0.6656313830830001
10557, ONILUT , None , C2/c ,1,1,1.4203428012600001,0.730159440259
10558, LALYIJ , COC(=O)C1(CC(=O)OC21C(=O)N(Cc1ccccc1)c1ccccc21)c1ccc(cc1)N(=O)=O , P21 ,0,0,1.3856731648299998,0.680847723705
10559, FULWEQ , CC(C)=NNC(N)=C(N(=O)=O)N(=O)=O , P-1 ,1,1,1.52491860355,0.7005494505490001
10560, RAZTIV , O=N(=O)C1=CN(C=N1)N1CCOCC1 , Pnam ,0,0,2.13892156654,0.777532065458
10561, ABULIT04 , COc1cccc(C=NO)c1O , Pbca ,1,0,1.67252362055,0.831024320059
10562, SAMROP , CNC(NCC1CCOC1)=NN(=O)=O , P21/c ,1,0,1.3938272288,0.699205263501
10563, YEJFIE , CC(=O)Oc1ccc(cc1)C(=O)OC1COC2C(COC12)ON(=O)=O , P21 ,0,0,1.43641757417,0.664791572441
10564, XICQAB , O=C1CC2CCCC34CCCC3C(CO1)ON24 , P212121 ,0,0,1.51255965602,0.7444651253919999
10565, LEBGEE04 , CC(C)=NNc1ccc(cc1N(=O)=O)N(=O)=O , P-1 ,1,1,1.5032030895500001,0.711899574645
10566, IRIQAC , O=C1NC2CC1C1C2ON=C1c1ccccc1 , Pbca ,1,0,1.36405398367,0.6818476256910001
10568, XARREN , O=C(CC=CC#Cc1ccccc1)OCc1ccc(cc1)N(=O)=O , P21/a ,0,0,1.3145831713200002,0.681663179106
10570, VEQBIF , CC1(C)c2cc(ccc2N2C(=O)c3ccccc3C(C(O)=O)C12C)N(=O)=O , P21/c ,1,1,1.4734933337,0.729310503544
10571, SELGOH , COC(=O)C1(CC2CC2(C1c1ccccc1)N(=O)=O)C(=O)OC , P21/c ,1,1,1.35301249961,0.681361523467
10572, RAGGUD , CC1=[N+]([O-])ON=C1NCNC1=NO[N+](=C1C)[O-] , I-42d ,0,0,1.57812396361,0.7196760620730001
10573, QUFPAK , Nc1cc(c(N)c(c1)N(=O)=O)N(=O)=O , P21/c ,1,0,1.74171986183,0.768585711982
10574, IQOSAJ , COC1CC(CN(=O)=O)(OC(C)=O)C2OC(OCC2O1)c1ccccc1 , P212121 ,0,0,1.33216582208,0.654684601113
10576, KERFEU , Cc1ccc(cc1)C1=NOC(C1c1ccccc1)(N1C=NC=N1)C(=O)c1ccccc1 , P-1 ,1,1,1.2811446822700001,0.658210614059
10577, ACUZON , C[N+]([O-])=Cc1ccc2cccc(O)c2n1 , Pbca ,1,0,1.4296728238499998,0.733969506257
10578, DNOPHL02 , Oc1ccc(cc1N(=O)=O)N(=O)=O , P212121 ,0,0,1.71510265927,0.7432085446109999
10580, ETAVOK , COC1=NC(CC(C)=O)N=C(OC)C1(Cc1ccccc1)N(=O)=O , P21/c ,1,0,1.2884055514200001,0.655101675177
10581, VUXWUG , CC1=NC(=NN1C(=NO)c1ccccc1)c1ccccc1 , Pbca ,1,0,1.28267472763,0.669480363985
10582, KOKDET , CCOC(=O)c1cc(cnc1NC1=NC(=NN1)C)N(=O)=O , P-1 ,1,1,1.46981512262,0.667846967847
10583, CIRLAS , COc1ccc(cc1)C(CN(=O)=O)c1ccc(C)cc1 , P212121 ,0,0,1.2578577739,0.673139014699
10585, CEKCUS , COC(=O)C(C)(C)NC(=O)C(Cc1ccc(cc1)N(=O)=O)NC(C)=O , P-1 ,1,1,1.3258937791,0.678656126482
10586, BASQOB , CC1=CCC2C(=O)N3OC4C(=C)CCC(OCc5ccccc5)C4(C)CC(=O)C13C2(C)C , P212121 ,0,0,1.2494177823100001,0.6751069142300001
10587, YOWXOY , CC1(C)N([O])C(=N([O])C1(C)C)c1c(nnc(c2ccccc2)n1[O])c1ccccc1 , P212121 ,0,0,1.30738376826,0.670358698319
10588, SANXOV , O=N(=O)c1ccc(cc1)C1Nc2ccccc2C2OCCC12 , P-1 ,1,1,1.35312839819,0.677811550152
10590, ENVFUR01 , CN(C)C=CC1=CC=C(O1)N(=O)=O , Pbca ,1,0,1.36470682408,0.649124668435
10591, KEMFUE , OC(=O)CCN(CCC(O)=O)c1ccc(cc1)N=Nc1ccc(cc1)N(=O)=O , C2/c ,1,0,1.47420266475,0.721463844797
10592, PURSEB , O=N(=O)c1ccc(OCCN(CCOc2ccc(cc2)N(=O)=O)CCOc2ccc(cc2)N(=O)=O)cc1 , P-1 ,1,1,1.37934868536,0.672104018913
10594, FONZAK , CC1(C)C2CCC1(C)C1OC(=O)C(N=C21)C(CN(=O)=O)c1ccccc1 , P212121 ,0,0,1.24124933596,0.650894673475
10595, TALBIU , O=C(NN(=O)=O)OCC#CCOC(=O)NN(=O)=O , P21/n ,0,0,1.6869375444699999,0.718454545455
10596, SOGDAU , CC(=NNc1ccc(cc1)N(=O)=O)c1cnccn1 , P21/n ,0,0,1.4185656997799998,0.7030457658210001
10598, XAPPOW , CC(=O)OC1CCC2(C)C(CCC3(C)C2CC(=NO)C24OC(=O)C5(CCC(C)(C)CC25)CCC34C)C1(C)C , P21 ,0,0,1.2264734817799998,0.680898049319
10599, ZUXYIC , CON1C(=O)c2ccccc2C1(O)Cc1ccccc1 , P212121 ,0,0,1.3008327861799998,0.680952540705
10600, EGISOE , CCOC(=O)C(=NOC(=O)c1ccc2ccccc2c1)C#N , P212121 ,0,0,1.33872644429,0.6702539682540001
10601, UJIHOM , Cc1cc(C)cc(CC2=CN=C3N2CC2=C(ON=C32)c2cc(C)cc(C)c2)c1 , C2/c ,1,0,1.27221073331,0.683762538144
10602, TIZTOL , CC(C)CCCC(C)C1CCC2C3CC(ON=O)C4CC(CCC4(C)C3CCC12C)OC(C)=O , P21 ,0,0,1.16333736257,0.666846999155
10603, BIHDIH , O(N=C(c1ccccc1)c1ccccc1)C(=Nc1ccccc1)c1ccccc1 , P-1 ,1,1,1.2697016846,0.680128567202
10604, MOSLUC , COc1ccc(cc1)N=Cc1cc(ccc1O)N(=O)=O , P21/c ,1,0,1.4182156823899998,0.6996425592759999
10605, TEVDOQ , NC1=NON=C1C1=[N+]([O-])ON=C1C1=NON=C1N(=O)=O , P21/n ,0,0,1.85262996057,0.733847349232
10606, ZAMWIT , Cc1ccc(cc1)N1C=C(N=C1C)N(=O)=O , P21/c ,1,0,1.37275586408,0.700085034014
10607, FIWHAW , CC(OC(=O)c1cc(cc(c1)N(=O)=O)N(=O)=O)C1C(C1c1ccccc1)C(=O)C1CCCCC1 , P21/c ,1,0,1.3561335479499999,0.690256574428
10608, MIBJOX , CC(=O)OC1CC2CON=C2C2OC(C)(C)OC12 , P212121 ,0,0,1.28227299719,0.645462007505
10609, SITQET , Cc1cc(N2C=NC=N2)c(cc1N(=O)=O)N(=O)=O , Pbca ,1,0,1.5120176176499998,0.679447052686
10610, PUBMUU08 , O=N(=O)N1C2C3N(C1C1N(C(C(N3N(=O)=O)N1N(=O)=O)N2N(=O)=O)N(=O)=O)N(=O)=O , P21/n ,0,0,1.94710149518,0.732476378818
10612, YEMZOH , O=N(=O)c1cc(CC#N)cc(CC#N)c1 , P-1 ,1,1,1.4479822915600002,0.733571286932
10613, HEXCOF , CCOC(=O)C12Cc3cc4ccccc4nc3CC1CCC(C)(C2)N(=O)=O , P212121 ,0,0,1.3631031073,0.715353822314
10614, AWEMOF , COc1ccc(cc1)C1=NOC=C1C(=O)C1=NN(N=C1)c1ccccc1 , P21/c ,1,0,1.38825776115,0.6874636891789999
10615, VATYOE , Cc1cc(C)c(c(C)c1)C1=N([O])N(=C2C=C(C)C(=CC2=N1[O])C)[O] , P21/n ,0,1,1.32614711306,0.688437306741
10616, QUZROT , CCOC(=O)C1(Cc2cc(ccc2N2CCCCC12)N(=O)=O)C#N , P-1 ,1,1,1.33296797981,0.6804763816410001
10617, TAMQEG , COc1cccc(CC2C(=C)C=C(C)CC2(C)C)c1N(=O)=O , P21/n ,0,1,1.19960893127,0.670269607843
10618, ITASIH , CC1=NN=C(C)N1NC(O)c1ccccc1N(=O)=O , C2/c ,1,0,1.37074106281,0.6683639449600001
10619, PIGGOE , COc1ccc(cc1)c1ccc2[n+]([O-])c3cc(C)ccc3nc2c1 , Pbca ,1,0,1.3755123034299999,0.709971325385
10620, XATWOG , COc1ccc(COCC(C)N2CC(C)C(CN(C)C(=O)OC(C)(C)C)OCC=CCC(C)Oc3ccc(cc3C2=O)N(=O)=O)cc1 , P212121 ,0,0,1.28452649373,0.696094876345
10621, PIYSOG , CC(C)(C)OC(=O)NCC(=O)NC(=Cc1ccccc1)C(=O)NC(Cc1ccccc1)C(=O)Nc1ccc(cc1)N(=O)=O , P21 ,0,0,1.30970097411,0.708071818891
10622, NTROMA03 , CN(=O)=O , P212121 ,0,0,1.4338289153600001,0.653272508741
10623, XZBTZO , [O-]C1=C2N=Nc3ccccc3[N+]2=NO1 , Pbca ,1,0,1.62901202041,0.730733547749
10624, TEGDIT , CON=C1CCCCCCCCCC23CCCC1(OO2)O3 , C2/c ,1,0,1.22876504098,0.68704172527
10625, NAHBOQ , C1ON=C2C1CN(Cc1ccccc1)C2c1ccccc1 , P212121 ,0,0,1.29224211805,0.7091731266150001
10626, POKPEK , COC(=O)c1cc(OC)c2C(CO)C3(OC)ON(CC4OC(C)(C)OC34)c2c1 , P21/n ,0,1,1.33657338736,0.657666262852
10627, RODJEA , CCOC(=O)C(C=O)=C1NC(C)(C)N(O)C1(C)C , Pbca ,1,0,1.26465520998,0.677133027523
10628, XUVCOG , CC(C)(C)c1cc(cc(O)c1O)C1=[N+]([O-])C(C)(C)C(C)(C)N1[O] , P-1 ,1,1,1.28754715362,0.704254201681
10629, NOGCIX , CN1C(=NC(=C1N(=O)=O)C#CC=C(C)c1ccccc1)C , P21/c ,1,0,1.32916793093,0.703780113742
10631, LETPIJ , O=N(=O)c1ccc(NN=C2CCC3CCCC3C3CCCC23)c(c1)N(=O)=O , P21/a ,0,0,1.35246267241,0.699247266474
10632, YIMWOI , O=N(=O)c1cccc(c1)C1=CC=C(O1)C=C(C#N)C#N , P21/c ,1,1,1.4633636228600002,0.714605476894
10633, TICXAF , CC(=O)Nc1ccc(cc1)C1=[N+]([O-])C(C)(C)C(C)(C)N1[O] , P21/c ,1,1,1.24855596037,0.674024241891
10635, TINWUJ , OC(=O)CCC(=O)Nc1ccc(cc1)N(=O)=O , P21/c ,1,0,1.57813836476,0.755068752096
10637, GEMWUQ , O=C1C2=C(C(=O)C3=C1c1ccccc1[N+](=C3)[O-])c1ccccc1N2 , P21/c ,1,1,1.52682089687,0.7332326114929999
10638, ZAQQUG , CN1OC(=O)C(Cc2ccccc2)N(C(=O)C(COC(C)(C)C)NC(=O)OCc2ccccc2)C1=O , C2/c ,1,0,1.23151907771,0.634362078165
10639, DOLQIE , CCOC(=O)CC1(O)C(C2c3ccc(OC)cc3N3C(=O)N(C(=O)N1C23C(C)=NOC)c1ccccc1)C(=O)OCC , P-1 ,1,1,1.30528371244,0.6484539476969999
10640, SADKUF , CCCNc1ccc(C=Cc2ccc(cc2)N(=O)=O)cc1N(=O)=O , Pbca ,1,0,1.3912386877899998,0.7064806655410001
10642, AHIDAY , Oc1ccccc1C=NN(c1ccccc1)c1ccccc1N(=O)=O , P21/n ,0,0,1.34158762233,0.674665485157
10643, IPIKEZ , O=N(=O)c1ccc(CNCCN(CCNCc2ccc(cc2)N(=O)=O)CCNCc2ccc(cc2)N(=O)=O)cc1 , P212121 ,0,1,1.3354851995,0.6804935941429999
10645, VEXMOA01 , ON=C(c1ccccc1)c1ccccn1 , P21/n ,0,1,1.35146091164,0.715808087859
10646, POPDUU , OC(CON1C(=O)C2C3CC(C=C3)C2C1=O)CN1CCN(CC1)c1ccccc1 , P21/c ,1,0,1.2960603668000001,0.66566893424
10647, UPUYOU , COC1=NC(C(=NC1C(C)C)OC)C(C)(O)C1CC(=NO1)C , P21 ,0,0,1.25086955744,0.674460499867
10648, FAKTUG , CC(C)(CO)C1OCC(CO)C1N([O])=Cc1ccccc1 , C2/c ,1,0,1.3674882441999998,0.7163000725550001
10649, APALOU , CC(=O)N1N=Cc2cc(ccc12)N(=O)=O , P-1 ,1,1,1.54568609534,0.725531914894
10650, COHYEE , COC(=O)C12C(CCCC1=NNc1ccc(cc1N(=O)=O)N(=O)=O)C2=C=C , P-1 ,1,1,1.43248988081,0.696614395144
10651, TACWOJ , CN(C)C1=Nc2cc(cc(c2NC21CCCC2)N(=O)=O)N(=O)=O , P-1 ,1,1,1.4165761245200001,0.6751870096699999
10652, XAHZIS , O=N(=O)c1cccc(c1)C1OC1c1c(cc(cc1N(=O)=O)N(=O)=O)N(=O)=O , P21/c ,1,0,1.57618379759,0.696712712013
10653, BEVJAP , O=N(=O)c1ccc(cc1)c1nc2ccccc2c2c3ccccc3ccc12 , P21/c ,1,1,1.4083611925900001,0.7128959276019999
10654, WEFROR , CC(=NOCc1ccccc1)c1cccc(c1)N=Cc1c(O)ccc2ccccc12 , P21/c ,1,0,1.3075381597,0.7399672399670001
10655, AJOZOQ , CCCCCCCCCCCCCCCCOc1ccc(cc1)C(=O)Oc1ccc(cc1)C1=NC2(CCCCC2)N([O])C1(C)C , P-1 ,1,1,1.15325834484,0.670578503852
10656, OJELUM , CCOC1CC(C(=NO1)CON(=O)=O)c1ccc(OC)cc1 , P-1 ,1,1,1.42638773528,0.719061014647
10657, MUQXIH01 , Oc1ccc(c2C(=O)c3ccccc3C(=O)c12)N(=O)=O , P21/n ,0,0,1.61895554034,0.745988662228
10659, XUMDUE , CCOC(=O)OC(=O)c1cc(ccc1OC(=O)OCC)N(=O)=O , P21/c ,1,0,1.4898535402200002,0.797291149711
10660, KIPBOC , CCc1cc(CC)c(C2=NOCC2)c(CC)c1C1=NOCC1 , Pnma ,1,0,1.1972600908,0.6721107047470001
10662, ADOMAK , O=C(N1CCc2cc(ccc12)N(=O)=O)c1ccccc1 , P21 ,0,0,1.4203311263499998,0.71237446198
10663, DODPOD , CC1CCC(CC1)C(C)CC1CCCC1OC(=O)c1cc(cc(c1)N(=O)=O)N(=O)=O , P21 ,0,0,1.25264167685,0.6733894736839999
10665, DIHYAX , COc1ccccc1OC(CO)C(=NO)c1ccc(OC)c(OC)c1 , P-1 ,1,1,1.31720095298,0.67884468831
10666, EZORUI , COc1cc(OC)c(C2=NOC3(O2)C2ON=C(C2CC2(C)OC(C)(C)OC32)c2c(OC)cc(OC)cc2C2OCCCO2)c(c1)C1OCCCO1 , P21/c ,1,0,1.38229725946,0.6930268918070001
10667, CUZWEZ , CN(C)Nc1c(cc(cc1N(=O)=O)N(=O)=O)N(=O)=O , P212121 ,0,0,1.63090363726,0.73871961372
10669, GADCIA , CC(C)OC(=O)NN(C(=O)OC(C)C)C(=CC1CCCCC1)N(=O)=O , P-1 ,1,1,1.2082386328899999,0.630683042448
10670, LUVREZ01 , CC(=O)N(c1ccccc1)c1ccc(cc1)N(=O)=O , P21/n ,0,0,1.3733131435100001,0.6999425201180001
10672, ALONAQ , CC1(C)CC(C)(C)C2=[N+]([O-])c3ccccc3C2=C1 , P212121 ,0,0,1.20156574386,0.681293698035
10673, VUKPOI01 , O=N(=O)c1ccccc1C=CC=NCCN=CC=Cc1ccccc1N(=O)=O , P21/c ,1,0,1.3858363792800001,0.7150432900429999
10674, OFEXAY01 , CCOC(=O)CCNc1nc(N)nc(OCc2ccccc2)c1N=O , P21/c ,1,1,1.4576605223899999,0.734616353664
10675, ALACIA , COc1ncc(c2ccccc2)c2c1cccc2N(=O)=O , P212121 ,0,0,1.41568322617,0.7082919563060001
10676, QAZCAW , O=N(=O)C1=CCCCC1c1ccccc1 , P212121 ,0,0,1.25048094643,0.6672652401870001
10677, XUMSED , CC(=O)OC1C2CON=C2C2OC(C)(C)OC12 , P212121 ,0,0,1.3234694889799998,0.657005323078
10678, RENFEY , O=N(=O)c1ccc(cc1)C1=CN=NN1Cc1ccccc1 , P21 ,0,0,1.42682772734,0.719467899429
10680, WAKDIW , CC(C=Cc1ccccc1)=NNc1ccc(cc1N(=O)=O)N(=O)=O , P21/n ,0,0,1.39206713488,0.6871637735699999
10681, BOPCEP01 , CC1=NOC(C1)C1(O)CC2CCC1N2C(=O)OC(C)(C)C , P21/c ,1,0,1.21273612657,0.644025913311
10682, CUKCAM10 , OC(=O)c1cc(cc(c1)N(=O)=O)N(=O)=O , A2/a ,0,0,1.6900204680000002,0.728874225505
10684, IZARUX , COc1ccc2c3cnc4ccccc4c3C(=NOCCN(C)C)c2c1 , P21/n ,0,0,1.29529865797,0.684200913242
10686, MENPDL , CC(CO)(CO)N(=O)=O , Cc ,0,0,1.31572962432,0.631752484192
10687, WEGWIP , CC1(C)N=C(C2C(N12)c1ccc(cc1)N(=O)=O)c1ccc2ccccc2c1 , P-1 ,1,1,1.24177028746,0.645650132332
10688, AVALEQ , CC1C2C=Cc3c(cccc3N(=O)=O)N2C=CC1=O , P21/c ,1,0,1.4120810723700001,0.6903647822769999
10689, SOGYIX , Cc1ccc(Nc2c(cc(c3cccnc23)N(=O)=O)N(=O)=O)cc1 , P21/c ,1,0,1.50371599236,0.723964345261
10690, FORAMO , NC=NO , P212121 ,0,0,1.3793718714899998,0.694578507079
10691, TOCGOH , CC(C)(C)OC(=O)N1C(COC1(C)C)C(C#N)N(O)Cc1ccccc1 , P212121 ,0,0,1.2041444100299998,0.661240583804
10692, VALTEJ , O=N(=O)C(COCOCC(N(=O)=O)(N(=O)=O)N(=O)=O)(N(=O)=O)N(=O)=O , P21/c ,1,0,1.7782566229199999,0.703362751065
10693, KIVZEV , COC1(C)OC(C)C(OC1(C)OC)C1CC(=NO1)C1COC(C)(C)N1C(=O)OCc1ccccc1 , P212121 ,0,0,1.2915779753899999,0.6842490613269999
10694, IVINOR , COc1cc2CC3CCC(CC3(c3ccccc3)c2c(OC)c1)OC(=O)c1ccc(cc1)N(=O)=O , P21/c ,1,0,1.36296926171,0.706203890007
10695, OMEJOG , O=N(=O)C1=CON=C1c1ccccc1 , P21/c ,1,1,1.5538485530200001,0.7456467949850001
10696, SURHIW , OCCNC(=O)C=NO , P212121 ,0,0,1.41820317794,0.702393250689
10697, BIJKEN , COc1ccc2C=C([N+]3=NOC(=C3)[O-])C(=O)Oc2c1 , P-1 ,1,1,1.6395472587200002,0.75730077545
10698, VADZAB , OC1CCCCC1OC(=O)c1ccc(cc1)N(=O)=O , P-1 ,1,1,1.37349698409,0.68103152134
10699, COYLAF01 , O=N(=O)C(CNC1=NON=C1NCC(N(=O)=O)(N(=O)=O)N(=O)=O)(N(=O)=O)N(=O)=O , Iba2 ,0,0,1.7744490143400002,0.698397829948
10700, YIBGIZ , CC1(C)C2CC1C(C)(O)C(=O)C2=NO , P21/c ,1,0,1.3359017421400001,0.714010321797
10701, ETOBUK , CC(=O)Oc1ccc2C(=CC(=O)Oc2c1C[N+]1=NOC(=C1)[O-])C , P21/c ,1,0,1.5152712701,0.728226795693
10702, WETGEJ , CN1[N-]C(=C([N+]#N)C1=O)N(=O)=O , P21/n ,0,0,1.68129118933,0.723599868994
10703, POVKOA , Nc1ccc(cc1)N=Cc1cccc(c1)N(=O)=O , P21/n ,0,0,1.37017907436,0.6995437598119999
10704, JOHMUQ , CC12CC(=Cc3ccc(cc3)N(=O)=O)c3ccccc3C1(O)CCC2=O , P-1 ,1,1,1.3601498425999998,0.7014048403740001
10705, APOZAH , CC(=O)OCC(COC(C)=O)(COC(C)=O)N=Cc1ccc(cc1)N(=O)=O , P21/c ,1,0,1.3750336427899998,0.6945202020199999
10708, FOKVEH , COc1ccc(cc1)c1nc(N(C)C)c(c2ccc(cc2)N(=O)=O)c(n1)N(C)C , P21/n ,0,0,1.30186357786,0.676050591595
10709, DARWEB , O=C(c1ccncc1)c1ccc(cc1)N(=O)=O , P-1 ,1,1,1.45128950561,0.708133971292
10710, YAYCIK , COC(=O)C12CCCC3C(CC(COC(=O)c4ccc(cc4)N(=O)=O)C(=C13)CCC2)N(=O)=O , P-1 ,1,1,1.34960537669,0.671193092622
10711, BAWXOP , CC12CCCC=C1C1(C2)Oc2ccccc2C1=NNc1ccc(cc1N(=O)=O)N(=O)=O , P-1 ,1,1,1.45639412845,0.7185643641339999
10712, TIJPOS , CN(C)c1cccc2cccc(C=NO)c12 , P41 ,0,0,1.2522278870899999,0.682163590558
10714, SUVLAW , O=N(=O)c1cccc(NN=Nc2cccc(c2)N(=O)=O)c1 , P21/n ,0,0,1.51511634551,0.708593159486
10716, VARNAE , CCCCCC(ON1C(=O)c2ccccc2C1=O)C=CC1C(COC1Cc1ccccc1)CC=C , P21/c ,1,0,1.1944061216500002,0.664732077888
10719, HUZJAN , O=N(=O)OC1C2CC3C1C3C2ON(=O)=O , Cmc21 ,0,0,1.6020668471500001,0.7083078906300001
10720, GECXUI , [O-][N+]1=C2C=CC=CC2=C(C#N)N1c1cccc2ccccc12 , P21/c ,1,1,1.3515084920700002,0.680918091809
10722, QABPIV , CC(=O)c1ccc(cc1OC(=O)c1ccc2ccccc2c1)N(=O)=O , Pcab ,0,1,1.3968073381200001,0.6924388608740001
10723, OTAKEB01 , N1C2=NON=C2C2=NON=C2C2=NON=C12 , P21/n ,0,0,1.86734817873,0.742716742717