ID,name,smiles,space_group,inversion_symmetry,beta_packing,density,packing_coefficient
3946, XACCOW , O=C(OCC(N(=O)=O)(N(=O)=O)N(=O)=O)c1c(cc(c(C(=O)OCC(N(=O)=O)(N(=O)=O)N(=O)=O)c1N(=O)=O)N(=O)=O)N(=O)=O , P21/c ,1,1,1.84803733072,0.720234760571
3947, LOFSUV , CCN1C(=O)C(=NNc2ccccc2N(=O)=O)C(=C(C#N)C1=O)C , Pbca ,1,0,1.49267076377,0.725839289582
3949, NAPJEW , CC(=CC=CN(=O)=O)N(=O)=O , P21/n ,0,0,1.4756426813799999,0.708721624851
3950, MIKTIK , CN(CN=[N+]=[N-])N(=O)=O , P212121 ,0,0,1.49281320155,0.692125011874
3953, NETLEF , O=N(=O)c1cc(c(ON=C2CCCCC2)c(c1)N(=O)=O)N(=O)=O , P21/c ,1,0,1.51121220331,0.694928908921
3954, MEXTUG , Cc1c(C)c2OC(=O)CCc2c(c1O)N(=O)=O , P-1 ,1,1,1.55155250734,0.742441342441
3955, PIRPOV , CC1(C)CC(=C2CC(C)(C)N([O])C2(C)C1)OC(=O)c1cc(cc(c1)N(=O)=O)N(=O)=O , P31 ,0,0,1.30816400924,0.652155012594
3956, FOZQOC , CC1CCC2(N1c1ccccc1C2=NNc1ccc(cc1N(=O)=O)N(=O)=O)c1ccccc1 , P1 ,0,1,1.3644001187700001,0.6806924136470001
3958, HEXQEG , COC(OC)C1(C)CCC2ON(C)C3CCC1C23 , P21/c ,1,0,1.1865114163,0.656762955682
3959, BIHHEH , CCC1(OCc2ccc(OC)cc2)C(C)C(C=CC1=O)N(O)c1ccccc1 , P21/n ,0,0,1.27002922737,0.684199521409
3960, IYIBAT , COC(=O)C1C2C=CC(C2OC(=O)c2cc(cc(c2)N(=O)=O)N(=O)=O)C1C(=O)OC , P-1 ,1,1,1.5004272005000001,0.699604936659
3961, YUGBEH , CC(N=Cc1ccc(cc1)N(=O)=O)C(O)c1ccccc1 , P21/n ,0,0,1.27984566418,0.6698099699310001
3962, GALTEU , CCOC(=O)CC1CCC(C(C1N(=O)=O)c1ccccc1)N(=O)=O , P212121 ,0,0,1.34913835239,0.702376283847
3965, ITUNOC , CC1(C)CC(CC(C)(C)N1[O])N=C=NC1CCCCC1 , P21/c ,1,0,1.16142673001,0.682038286393
3966, ZZZTLC01 , O=N(=O)N1CCN(CC1)N(=O)=O , Pnma ,1,0,1.6347987055000002,0.736060054093
3967, MUFCIA , O=C(OC1C=CCC2OC12)c1ccc(cc1)N(=O)=O , P212121 ,0,0,1.42304721507,0.6956716954019999
3968, ZIVXIN , CC1(C)OC(=O)C(CC2=CNc3ccc(cc23)N(=O)=O)C(=O)O1 , C2/c ,1,0,1.5055931147,0.724621008494
3969, BAFXIP , C[N+]1([O-])CCOCC1 , P21/m ,0,1,1.25000776196,0.6961990950229999
3970, NAYPAF , O=N(=O)N1C2OC3C1N(C1OC2N(C1N3N(=O)=O)N(=O)=O)N(=O)=O , Pcab ,0,0,0.9834968372730001,0.7479386739020001
3971, UWUGEA , O=C1C2=CC(=C3NCCCN3C2Oc2ccccc12)N(=O)=O , C2/c ,1,1,1.50480318042,0.7114856633759999
3972, TIPNAJ , CCOC(=O)CN(C(=O)OCC(N(=O)=O)(N(=O)=O)N(=O)=O)N(=O)=O , P21/c ,1,0,1.6335677122999999,0.7313452830689999
3973, AREWUR , CC(=O)Oc1ccc(cc1)C=CC(=Nc1c(C)cccc1C)c1ccccc1N(=O)=O , C2/c ,1,0,1.28550783124,0.672698163536
3974, PYRCOX , ON=Cc1ccncc1 , P212121 ,0,1,1.28154035463,0.660749976206
3975, GILPID , CC1(C)CCCC(C)(C)N1OC(C(N=[N+]=[N-])c1ccccc1)c1ccccc1 , P21/c ,1,0,1.19042290381,0.675537075537
3976, PATSUB , CON(C)C(=O)CC1C(C)(O)CCC2C(C)(C)CCCC12C , P21 ,0,0,1.1653372172299998,0.6867972883600001
3977, SAPFUN , CN(C)c1ccc(cc1)C=Nc1cc(ccc1N)N(=O)=O , P21/c ,1,0,1.31020474556,0.678571428571
3979, ECIBIB , CN(c1ccccc1)N(=O)=O , Pbca ,1,0,1.3134555279,0.669232323232
3981, YARRAM , CC1(C)N([O])C(=N([O])C1(C)C)c1ccc(cc1)c1ccc(cc1)C1=N([O])C(C)(C)C(C)(C)N1[O] , P21/n ,0,0,1.27904351186,0.6808568586589999
3982, QAPRUV , O=C(OC1C2CCC1N(C2)Cc1ccccc1)c1cc(cc(c1)N(=O)=O)N(=O)=O , P-1 ,1,1,1.4265204713,0.698159332758
3983, QAVCIC , O=C1N(Nc2ccc(cc2N(=O)=O)N(=O)=O)C(=O)c2ccccc12 , Pna21 ,0,0,1.5894876054299998,0.708582422868
3984, LIVSEP , ON1C(=O)C(=O)N(O)c2ccccc12 , C2221 ,0,0,1.64021569617,0.727812361478
3985, CUVXOG , O=N(=O)C(CC(N(=O)=O)(N(=O)=O)N(=O)=O)CC(N(=O)=O)(N(=O)=O)N(=O)=O , P21/n ,0,1,1.90783053387,0.748381428043
3986, UXAFIK01 , CC12C(C(C(C(N(=O)=O)C1(O)CCC2=O)c1ccccc1N(=O)=O)N(=O)=O)c1ccccc1N(=O)=O , P212121 ,0,0,1.5447654870200003,0.7256080458390001
3987, UZAWEZ , NC(=O)CCC(N(=O)=O)(N(=O)=O)N(=O)=O , P-1 ,1,1,1.83588476878,0.775664968874
3988, NTROMA06 , CN(=O)=O , P212121 ,0,0,1.6373706848299998,0.7385079365080001
3989, GAWWEJ , CC1(C)C=CN(N=C1c1ccccc1)c1ccc(cc1)N(=O)=O , P21/c ,1,0,1.33099041423,0.700578923564
3990, WINCAZ , CN1c2ccccc2C(=C1c1ccccc1)C=CC1=N([O])CC(C)(C)C1 , Pbca ,1,0,1.1998411824600002,0.663056292367
3991, DUFKIZ , Cc1ccnc(c1)c1cc(CCOc2nc(NC3CC(C)(C)N([O])C(C)(C)C3)nc(n2)N(c2ccccc2)c2ccccc2)ccn1 , P-1 ,1,1,1.2307198744299999,0.6579623824449999
3992, YEKJII , CCCN1C(=O)N(CCC)C2=C(NC(=N2)C2=CC(C)(C)N([O])C2(C)C)C1=O , P21/c ,1,0,1.21781193731,0.655744699964
3993, TASRUA , CC(OCc1ccccc1)C(CN(=O)=O)c1ccccc1 , P212121 ,0,0,1.22662538857,0.675768239492
3994, FAMFEH , CCOC1=Nc2cccc(C(O)=O)c2N1Cc1ccc(cc1)c1ccccc1C1=NOC(=O)N1 , P21/c ,1,0,1.3900404505300001,0.675137844612
3995, IHAJEI , COC(=O)C1NC(C(C1c1ccccc1)N(=O)=O)c1ccccc1 , P212121 ,0,0,1.3539386040099999,0.6936040398659999
3996, NAVVOV , CC(C)(C)C1=N([O])C(C)(C)C(=O)C1=C1C(=O)C(C)(C)N(=C1C(C)(C)C)[O] , Pbca ,1,0,1.16959675654,0.657239750038
3998, LUFVAJ , COc1ccc(cc1)N(C(C(C)CN(=O)=O)c1ccccc1)C(=O)OC(C)(C)C , P212121 ,0,0,1.2237956990899999,0.667699430199
3999, KUCKUQ , CN1C(=CN=C1C1=C(N=C(N1O)c1ccccc1N(=O)=O)c1ccccc1)N(=O)=O , P21/a ,0,0,1.48404824705,0.713760718661
4000, VEBVOO , CC(C)(C)OC1CCN2OC3C(CO)OC(=O)C3C12 , P32 ,0,0,1.30039228425,0.673014713555
4001, BOWZES , COC(=O)C=[N+]([O-])Cc1ccccc1 , Pc ,0,0,1.33257899327,0.700592231842
4002, ANUDAQ , CCOc1cc(ccc1C=C(C#N)c1ccc(cc1)N(=O)=O)N(CC)CC , P21/c ,1,0,1.30857135906,0.705737043759
4004, VETYUP , CCOC(=O)C(C)(C)ON1c2ccccc2C(=Nc2ccccc2)C1(c1ccccc1)c1ccccc1 , P212121 ,0,1,1.2357483747600002,0.663523364266
4005, BEVHUH , O=N(=O)c1ccccc1c1nc2ccccc2c2c3ccccc3ccc12 , Pbca ,1,0,1.37884042861,0.696211792569
4006, UFEPAW , CC1=CC2CCCC32CCC(C1)C3=NO , P21/c ,1,0,1.1964486127299998,0.6847936731659999
4008, KEMSIF , CC(=Cc1ccccc1)[N+]([O-])=Cc1ccccc1 , P21/c ,1,0,1.1627900510200002,0.646698144141
4009, FEZZIU , Cc1cc2Oc3cc(Oc4cc(C)cc(Oc5cc(Oc(c1)c2)c(cc5N(=O)=O)N(=O)=O)c4)c(cc3N(=O)=O)N(=O)=O , Pca21 ,0,0,1.52418708055,0.683633867848
4010, JETDOE , CN1C(=O)C(c2cc(C)cc(C)c12)=C1c2ccccc2[N+](=C1c1ccccc1)[O-] , P-1 ,1,1,1.2980748361,0.6724239539419999
4011, UGOQUD , O=C1CC2(CC(N(O2)c2ccccc2)C(=O)c2ccc(cc2)N(=O)=O)C(=O)O1 , Pbcn ,1,0,1.48426952787,0.7046843641670001
4012, GARNEU , Cc1ccccc1C=C(COc1ccccc1C=NO)C#N , P-1 ,1,1,1.24736787597,0.669258623976
4013, GOFNUM , CCOC(=O)C1=C(N(OCc2ccccc2)C(=C1OC=O)C(C)(C)C)C(C)(C)C , P-1 ,1,1,1.23613563651,0.681650246305
4014, ZIWQAZ , COc1cc(N)c(cc1OC)C(C)=NO , P21 ,0,0,1.35808064321,0.712523325731
4015, NIMLIF , CC1(C)OC(C)(C)c2cc3c(cc2N1[O])N([O])C(C)(C)OC3(C)C , P21/c ,1,1,1.29649081816,0.695635044254
4016, HINHAN , COc1ccc(cc1)C1N(O)CCC2=C1Nc1ccccc21 , P212121 ,0,0,1.2987666827600002,0.68763904911
4017, LOCVEF , NC(=NO)C1=C(C#N)N(Cc2ccccc2)C=N1 , P21/c ,1,0,1.3651740278400002,0.6948630947679999
4018, YIRDEK , COC(=O)C(C1c2ccccc2OCC2CON=C12)C(=O)OC , P21 ,0,0,1.41973493521,0.70119660214
4020, YUJXUX , OC1(COC2C(COC12)ON(=O)=O)C1OC2C(COC2C1(O)CN(=O)=O)ON(=O)=O , P212121 ,0,0,1.64935900938,0.7092757170990001
4021, PIPWOA , CN1C=NC(=C1C=Cc1ccccc1)N(=O)=O , P21/c ,1,0,1.39772037688,0.719829877725
4022, VATWUK , COc1ccc(c(O)c1)C(=O)c1cccc(c1)N(=O)=O , P21 ,0,0,1.47523094694,0.717317317317
4023, EBILOT , COc1ccc(cc1)C1=NOC2(Cc3ccccc3C2=O)C1c1cc(OC)c(OC)c(OC)c1 , Pbca ,1,0,1.26950124635,0.643570865962
4024, LAMFAI , Cc1ccc2N3OC(CC3c3cccc4ccccc34)Cc2c1 , P21/c ,1,0,1.35352434956,0.7241321093170001
4025, WUDNAL , CC1=C2CCOc3ccc(c(c23)C1(C)C)N(=O)=O , P21/c ,1,0,1.35712515784,0.696328403876
4026, WEGTEJ , COc1cc(OC)c(c(c1)C1OCCCO1)C1=NOC2C1C(=O)C=C(C)C2(OC)OC , P-1 ,1,1,1.3495104727,0.69052540913
4027, MOFJIB , COc1cccc(C=NOCCON=Cc2ccc(C=NOCCON=Cc3cccc(OC)c3O)c(O)c2O)c1O , Pn ,0,0,1.4297449879799997,0.7143592677349999
4028, QOJWAO , CCCC1C(O)C(CC2OC(=O)C=C2CC2=COC=C12)OC(=O)c1ccc(cc1)N(=O)=O , P21/c ,1,0,1.3593622835199999,0.677517168808
4029, YAHJOH01 , Cc1ccc(c(c1N(=O)=O)N(=O)=O)N(=O)=O , P-1 ,1,1,1.6763110646200001,0.721001221001
4030, UBEGIU , CC(C)(C)N([O])c1ccc(cc1)c1cc(cc2c1Oc1c(cc(cc1C2(C)C)C(C)(C)C)c1ccc(cc1)N([O])C(C)(C)C)C(C)(C)C , P21/c ,1,0,1.15570566563,0.669674856513
4032, UPIYEY , COc1ccc(cc1)C1=C(O)C(=O)OC1c1ccccc1N(=O)=O , C2/c ,1,0,1.47816035588,0.7066094880730001
4033, YUYFAZ , O=C1OCC2ON3CCCCC3C12 , Pbca ,1,0,1.3671317985100002,0.699180130215
4035, HOWVUM , O=N(=O)c1ccc(NN=CC2=C(OC(=CC2c2ccccc2)c2ccccc2)C2CCCCC2)c(c1)N(=O)=O , P21/c ,1,0,1.15844750841,0.592152292152
4036, UQACAR , COC(=O)C(C)=NNc1ccc(cc1)N(=O)=O , P-1 ,1,1,1.4669029968599998,0.72358966109
4037, DISLIA , O=C1c2cc(cc(c2c2c1cc(cc2N(=O)=O)N(=O)=O)N(=O)=O)N1CCCCC1 , P1121/n ,0,0,1.5090977150100002,0.6572781974140001
4038, OJAZIJ , CCOC1CC23C=CC(=O)CC2C(Cc2ccc(OC)c(O1)c32)N(=O)=O , P-1 ,1,1,1.4242458351499998,0.7195454545450001
4039, FUHTOR , COC(=O)C1C(C(C(N1c1ccccc1)c1ccccc1)N(=O)=O)c1ccccc1 , P-1 ,1,1,1.28264524075,0.660317460317
4041, ADOWUO , O=N(=O)NC1=NC(=NN1)C(N(=O)=O)(N(=O)=O)N(=O)=O , P21/n ,0,0,1.9556904985799999,0.7403117309270001
4042, CEQGUB , COc1cc(OC)c(cc1N(=O)=O)N(=O)=O , P21/n ,0,0,1.65366049401,0.7590620139309999
4043, VOHZEY , CON=C1CN(CCC1(C)C(N)=O)C(=O)OC(C)(C)C , I41/a ,1,0,1.20644130686,0.645305401469
4044, FESNEW11 , COc1ccc(cc1N(=O)=O)N(=O)=O , P21/n ,0,0,1.554615499,0.7640468227420001
4045, NIVBOJ , O=N(=O)C1Oc2ccccc2C1N(=O)=O , C2/c ,1,0,1.6661772056600002,0.7479861910240001
4047, CAJYES , O=C1C=Cc2ccccc2C21Oc1ccc3ccccc3c1C1=NO[N+](=C21)[O-] , P21/c ,1,0,1.4634354737200002,0.7056231003039999
4048, KEQVIM , COc1cc(ccc1OCc1ccc(cc1)N(=O)=O)C=NC1=C(C)N(C)N(C1=O)c1ccccc1 , P21/c ,1,0,1.29765659525,0.667118827998
4049, WOQNUL , CON=C(C)C(O)c1cc(OC)cc(OC)c1 , P21/c ,1,0,1.26618846687,0.676627619731
4050, FEFJUX , COc1ccc2CC3[N+](C)([O-])CCC45C(Oc1c24)C(=O)CCC35O , P212121 ,0,0,1.4619215619200001,0.734127801582
4051, BICNUW , CCOC(=O)C(=Cc1ccc(cc1)N(=O)=O)N(=O)=O , P-1 ,1,1,1.44850349925,0.6940000000000001
4052, FUJHAU , OC1(CC(C=Cc2ccccc2)C(C(C=Cc2ccccc2)C1C(=O)c1ccccc1)N(=O)=O)c1ccccc1 , P21/n ,0,0,1.23990819087,0.700540157137
4054, LACCUO , O=N(=O)c1ccc2OC3(CCCCC3C(C#Cc3ccccc3)c2c1)N1CCOCC1 , P21/n ,0,0,1.22199190894,0.6444423343010001
4055, ANEMEN , CC(=O)C1=C(C)NC(=C(C1c1ccc(cc1)N(=O)=O)C(C)=O)C , P21/n ,0,0,1.37688617917,0.719248177521
4056, TUCYOH , CC1=NOC(=C1)COC1C(COCc2ccccc2)OC2OC(C)(C)OC12 , P212121 ,0,0,1.26425554684,0.654851126546
4057, BUYPUG10 , O=N(=O)C12CC3(CC(C1)(CC(C2)(C3)N(=O)=O)N(=O)=O)N(=O)=O , P-421c ,0,0,1.6052694977700002,0.705330188679
4058, IMIPIF , CCC(C=CC=O)=[N+]([O-])c1ccccc1 , P21/n ,0,0,1.2566090774,0.7014179894179999
4059, TUVMEE02 , OCCCNc1cc(NCCCO)c(cc1N(=O)=O)N(=O)=O , P21/c ,1,0,1.4214051255700002,0.689974522628
4060, HITREH , CN(C)c1ccc(cc1)C=[N+]([O-])c1ccccc1CO , P21 ,0,0,1.3737572870399999,0.7228337754199999
4061, OFAZUQ , CCN(CC)C(=O)C(=Cc1cc(O)c(O)c(c1)N(=O)=O)C#N , P-1 ,1,1,1.4502636211200002,0.7253490870029999
4062, MNPHOL02 , Oc1cccc(c1)N(=O)=O , P21/n ,0,0,1.4775574241100002,0.702732440858
4063, CASDOQ , CC(C(N(C)OC(=O)c1ccc(cc1)N(=O)=O)c1ccccc1)N(=O)=O , P21/n ,0,0,1.3577967197799998,0.669194426891
4064, RAVNEH , CC(=O)N(C(C)=O)c1c(C)ccc(C)c1N(=O)=O , P212121 ,0,0,1.28814048586,0.656237638005
4065, AJUQUS , CC(=O)C(Cc1ccc(cc1)N(=O)=O)(OOC(C)(C)C)C(C)=O , Pbca ,1,0,1.22035971913,0.641607396871
4066, UHOPEN , CN1C=C(C=N1)C1=NC(C)(C)C(C)(C)N1[O] , C2/c ,1,1,1.20009956491,0.663554006969
4067, KUKHOP , O=N(=O)C(C1=NN(COCN2N=NC(=N2)C(N(=O)=O)(N(=O)=O)N(=O)=O)N=N1)(N(=O)=O)N(=O)=O , P-1 ,1,1,1.90997990677,0.7376098182549999
4069, REMYAJ , C=C1CC(=C2COC(C3CCCCC3)C12)COC(=O)c1cc(cc(c1)N(=O)=O)N(=O)=O , P21/c ,1,0,1.3835117565000001,0.698324970484
4070, YOLYIJ , COc1ccc(cc1)C(=O)C1C(c2ccc(cc2)N(=O)=O)C21C(=O)Nc1ccccc21 , P21/n ,0,0,1.35347178826,0.670796814522
4072, VANKED , O=N(=O)c1ccc(cc1)C(c1ccc(cc1)N(=O)=O)=C(c1ccc(cc1)c1ccncc1)c1ccc(cc1)c1ccncc1 , C2/c ,1,0,1.1047315514,0.562543745441
4073, FICLEK , CC1=C(C(O)=O)C(=NO1)c1ccccc1 , P21/n ,0,0,1.3856330420200003,0.688857589984
4074, ENAKAG , CC1(C)CCC2=C(O1)C(=NO)c1ccccc1C2=O , P-1 ,1,1,1.3322591279,0.6925358378650001
4076, LATWOS , O=C(C(=O)C1=C(C=C(C2=NON=C12)N(=O)=O)N(=O)=O)c1ccccc1 , P21 ,0,0,1.63155600679,0.7145440762399999
4077, NUNPER , CCOC1CC(c2ccccc2N(=O)=O)C2=C(O1)c1ccccc1OC2=O , P21/c ,1,0,1.37397791025,0.6796271500669999
4078, IQAVEB , CC(C)(C)c1cc(NC=C(C=Nc2cc(cc(c2)C(C)(C)C)C(C)(C)C)N(=O)=O)cc(c1)C(C)(C)C , P21/n ,0,0,1.1055691462200001,0.645456881488
4079, TEYHIO , COC(=O)Nc1ccc(cc1C(C(=O)OC)=C(C#N)C(=O)OC)N(=O)=O , P-1 ,1,1,1.4414965418799999,0.7026022913259999
4080, GEFDAW , COc1ccc2C(ON(C)CCCOc2c1)c1ccccc1 , P21/c ,1,0,1.2710065676200002,0.691036668176
4081, FACYOA , COc1ccc(CC(=C2CCCC2=NNc2ccc(cc2N(=O)=O)N(=O)=O)c2ccc(OC)cc2)cc1 , P-1 ,1,1,1.34368748662,0.686320191159
4082, XEYGOZ , CCOC(=O)C1=C(OC2(OC(=C(C#N)C12)N)c1ccc(cc1)N(=O)=O)c1ccccc1 , P21/n ,0,0,1.4089304073299997,0.6826081135359999
4083, WANVEP01 , O=N(=O)OCC1=C(CON(=O)=O)C(=NO1)C1=NOC(=C1CON(=O)=O)CON(=O)=O , P21 ,0,0,1.8485290983700002,0.765661785817
4084, DUVVIA , COC(=O)C1(CC(=C)C(C)(C1C)N(=O)=O)C(=O)OC , P212121 ,0,0,1.29416419403,0.6638638864590001
4085, DOVHAY , COC(=O)C(C)CC(C)C(=O)N1OCC2COc3ccccc3C12 , P21 ,0,0,1.31556465919,0.6996862112250001
4086, FECROV , CC(N1OC1c1ccccn1)c1ccccc1 , P212121 ,0,0,1.22452337268,0.667685758514
4087, YUVBIC , CC(C)(C)Oc1cc(nc(c1)N([O])C(C)(C)C)N([O])C(C)(C)C , P-1 ,1,1,1.1969565525599999,0.685261244277
4088, FUGZEN , COc1ccc(C=NOCCCCCCCCCON=Cc2ccc(OC)cc2O)c(O)c1 , P-1 ,1,1,1.23136241728,0.664178318733
4090, SONDEE01 , CN1C(=NC=C1N(=O)=O)COC(N)=O , P21/c ,1,1,1.62442599634,0.743784683685
4091, UVILAO , NN1N=C(C2=C1C(=NN2N)N(=O)=O)N(=O)=O , Pbca ,1,0,1.83518256648,0.746146074983
4092, FEJQAM , CC(=C)C1CCC(O)(CCCOC(=O)c2cc(cc(c2)N(=O)=O)N(=O)=O)CC1 , P-1 ,1,1,1.33250322823,0.6808919123199999
4093, UZEPUM , COc1cc2CCN3OC4C(C3c2cc1OC)C(=O)N(C)C4=O , P21/c ,1,1,1.44961171933,0.7206767676770001
4094, XEZXAB , CC1(C)N=C(N([O])C1(C)C)c1cc(cc(c1)C1=NC(C)(C)C(C)(C)N1[O])C#C , P21/n ,0,0,1.16442815473,0.651986295429
4095, OXIMOZ , CCOC(=O)C1=C(C)NC(=C1O)c1ccc(cc1)N(=O)=O , Pbcn ,1,0,1.43134440117,0.7031072235089999
4096, LIMZOW , OCC(O)CN1(=O)CCN(=O)(CC1)c1ccccc1 , P212121 ,0,0,1.35544997792,0.7035337850560001
4097, JORBUN , CC(C)(N(=O)=O)C(C)(N(=O)=O)N(=O)=O , P21/n ,0,1,1.5531929235,0.714611391695
4098, PEWVUK , O=C1OCC23C1C(ON2OC(C3c1ccccc1)C(=O)c1ccccc1)c1ccccc1 , P21/c ,1,0,1.3433125077799999,0.6772463151929999
4099, RISGOQ , OC(=O)c1ccc(Nc2c(cc(cc2N(=O)=O)N(=O)=O)N(=O)=O)cc1 , P21/c ,1,0,1.64583010291,0.720889894419
4100, JAYSAE , COc1cccc(c1)C1=NOC(=N1)CN1CCN(CC1)CC(=O)Nc1c(C)cccc1C , P21/c ,1,0,1.2616359829200001,0.6670800130100001
4101, OPUBIL , COC(=O)C=Cc1cccc(c1NC(C)=O)c1cccc(c1)N(=O)=O , P21/c ,1,1,1.3832655577200001,0.6967841569769999
4102, KIZVIZ , COc1ccc(cc1)N1C(C2COC(C)(C)O2)C2(OC2N(=O)=O)C1=O , P21 ,0,0,1.3612260883200002,0.664892838856
4106, FESRUT , O=C(OCC1OC(ON2N=Nc3ccccc23)C(OC(=O)c2ccccc2)C(OC(=O)c2ccccc2)C1OC(=O)c1ccccc1)c1ccccc1 , P212121 ,0,0,1.32401883012,0.652087837719
4107, VADHAM , O=C(ON1C=Nc2ccccc2C1=O)c1ccccc1 , P21/n ,0,0,1.47199848128,0.81700310559
4110, LAPVAC , COc1c(cc(cc1N(=O)=O)N(=O)=O)N1C=NN=N1 , P-1 ,1,1,1.65461611861,0.719296906797
4112, IQUHUZ , CCOC(=O)CN1C=C2C=CC(=CC2=N1)N(=O)=O , C2/c ,1,0,1.4050472007600001,0.681911892361
4113, HIQMID , CC1(C)CC(=O)C2=C(C1)NC1=C(C2c2cccc(c2)N(=O)=O)C(=O)CC(C)(C)C1 , P21/n ,0,0,1.2146576754,0.636910669975
4114, QIGGIY , Cc1cc(C)c([N+]([O-])=[N+]([O-])c2c(C)cc(C)cc2C)c(C)c1 , Pbca ,1,0,1.1674628411399999,0.773129169681
4115, JULBEX , CC(C)(C)C1CCC(CC1)OC(=O)c1ccc(cc1)N(=O)=O , P-1 ,1,1,1.2350203187200002,0.675967058502
4116, RAHFUE , Oc1ccccc1C(=O)C1=CN(C2CCCCC2)C(=O)C(=C1)N(=O)=O , P21/c ,1,0,1.41848264129,0.715676774586
4117, SEDTUQ04 , NC(N)=C(N(=O)=O)N(=O)=O , P21/n ,0,0,1.8793872816900004,0.772254164824
4118, DEVFEP , CCOC(=O)C12CC3=C(CN1C(=O)CC2=O)ON=C3OC , P21/c ,1,0,1.4839480724,0.7098545408399999
4119, FIJFEJ , COC(=O)C1=C(C)NC(=C(C1C=Cc1ccccc1N(=O)=O)C(=O)OC)C , P212121 ,0,0,1.33818357158,0.685799198538
4120, PULTEW , CCOC(=O)C=C(C1CC1c1ccc(cc1)N(=O)=O)C(=O)OCC , P-1 ,1,1,1.33653413854,0.696355685131
4121, CAGFUO , CCOc1ccc(cc1C1CC(=NN1c1ccccc1)c1cccc2ccccc12)N(=O)=O , P21/c ,1,0,1.27782087037,0.654897435897
4122, AFIZIA , O=C1Cc2ccccc2C(=O)N1OCc1ccccc1 , Pna21 ,0,0,1.3875424591299999,0.715408635081
4123, GEJTUL , Cc1ccc(cc1)C=Cc1cc(c(C=Cc2ccc(C)cc2)c(c1N1CCCCC1)N(=O)=O)N(=O)=O , P-1 ,1,1,1.27082291813,0.66962962963
4124, JAYNIH , CC(C)(COC(=O)C=Cc1ccc(O)c(O)c1)N(=O)=O , P21/c ,1,0,1.3917461860799998,0.689402045724
4125, VENROW , CCOC(=O)C(=CC(C)=O)N(C)OC , Aba2 ,0,0,1.28124241952,0.7000059926890001
4126, VEWXUT , CC1CCCCOC1CCCOC(=O)Nc1ccc(cc1)N(=O)=O , P21/c ,1,0,1.3033113566399999,0.688913525499
4128, PAQJEZ , Cc1cccc(C=CC(=O)c2ccc(cc2)N(=O)=O)c1 , P21/c ,1,0,1.3122948775299998,0.681820276498
4129, TAYRUJ , COC(=O)C1C(C(C(N1C)c1ccccc1)N(=O)=O)c1ccccc1 , P212121 ,0,0,1.28152239964,0.6749202551829999
4130, YATCOL , CC1(OC(=O)c2cc(cc(c2)N(=O)=O)N(=O)=O)C=CC2COC1O2 , P212121 ,0,0,1.5248953126499998,0.713757195186
4131, KANMOB , O=N(=O)C(=Cc1c2ccccc2cc2ccccc12)c1ccccc1 , P-1 ,1,1,1.30939188233,0.686073641435
4132, NEHPOG , COc1ccc(cc1)C(=NNc1ccc(cc1N(=O)=O)N(=O)=O)N(=O)=O , P21/c ,1,0,1.5007213540600002,0.678649777761
4133, FORRUB , Cc1ccc(cc1N([O])=NN(=O)=O)N([O])=NN(=O)=O , P21/n ,0,0,1.66107973711,0.725506365741
4134, XILZAU , NC(=NO)c1cccnc1 , P21/c ,1,0,1.36570397034,0.686118687106
4135, QIKDOD , O=N(=O)c1ccc(NN=C(CN2CCOCC2)CN2C=NC(=C2N(=O)=O)N(=O)=O)c(c1)N(=O)=O , P21/n ,0,0,1.55086819827,0.696847452562
4136, NBZOAC13 , OC(=O)c1ccc(cc1)N(=O)=O , P21/n ,0,0,1.6176826254199999,0.74707550514
4137, TAFKET01 , Cc1ccc(C)c(c1)c1cc(cc(c1)N(=O)C(C)(C)C)N(=O)C(C)(C)C , C2/c ,1,0,1.1658130068700001,0.676643110176
4138, KUYVEF , CC12CC3CCC(C3O1)C2OC(=O)c1cc(cc(c1)N(=O)=O)N(=O)=O , P21/n ,0,0,1.4693690221200002,0.6929160125589999
4140, KOTWEX , COc1ccc(cc1)c1c(cnc2N(N=C(C)c12)c1ccccc1)N(=O)=O , P-1 ,1,1,1.4174718835799998,0.713150803998
4141, YIKSEQ , O=C1C=CC=CN1OCc1ccccc1 , Pc21b ,0,0,1.29634758317,0.6848861751850001
4142, HIRPIH , CC1(C)CC(CC(C)(C)N1[O])N=Cc1ccncc1 , P21/c ,1,0,1.1670686542,0.665858954316
4143, SICPIE , CC1(C)N([O])C(C)(C)c2cc(C#N)c(cc12)C#N , P43212 ,0,0,1.18638724256,0.640522875817
4144, RAFHIP , CCCCCOc1c2Cc3cc(cc(Cc4cc(cc(Cc5cc(cc(Cc1cc(c2)C(C)(C)C)c5O)N(=O)=O)c4OCCCCC)C(C)(C)C)c3O)N(=O)=O , P-1 ,1,1,1.13193342701,0.610754035627
4145, VAQMIL , CCCCCCNC(=O)Nc1ccccc1C#Cc1cc(ccc1O)N(=O)=O , P21/n ,0,0,1.3096893623499999,0.6897091776500001
4146, AWUJIM , COc1ccc(cc1)C=NNC(=O)c1cccc(c1)N(=O)=O , P21/c ,1,0,1.36206599171,0.680969603694
4147, HIGCIJ , O=C(C1C2CCOC2ON1c1ccccc1)c1ccccc1 , Pbca ,1,0,1.32400105564,0.699211178724
4149, DAZZEM , O=C1CC2OCCC32OC2C(C3C1)C(=CC1OCCC21OC(=O)c1ccc(cc1)N(=O)=O)OC(=O)c1ccc(cc1)N(=O)=O , P-1 ,1,0,1.41216001114,0.6768679399359999
4150, YIJSAL , CC(=O)C=C(C)Nc1cccc(c1)N(=O)=O , P-1 ,1,0,1.42427550351,0.695707070707
4151, FEXJID , CON(C)C(=O)C(=O)C(C)(O)C(C)C=C , P21/n ,0,0,1.2543721553899998,0.694666444666
4153, ROHCIA , O=N(=O)c1cccc(c1)C1OCCO1 , Pbca ,1,0,1.52300415192,0.750045787546
4154, SAXHAA , CC1N=NC(C)(C1C(OC(C)=O)C(OC(C)=O)C(OC(C)=O)C(COC(C)=O)OC(C)=O)N(=O)=O , P212121 ,0,0,1.3233409920299999,0.65715894164
4155, NUPYON , COc1cc(cc(C=NNC(=O)c2cccc(C)c2O)c1O)N(=O)=O , P21/n ,0,0,1.45899884571,0.7009416827889999
4156, YIPQEV , CCN1c2ccc(cc2C(C)(C)C21CCc1cc(ccc1O2)N(=O)=O)N(=O)=O , P21/a ,0,0,1.41039102908,0.711701089953
4157, NOMKEG , O=C1N(CC(CN1N(=O)=O)ON(=O)=O)N(=O)=O , P21/n ,0,0,1.86533417395,0.7492180405609999
4158, GANTAT , O=N(=O)C1=C(NC2=NN3C=NN=C3N=N2)C(=NN1)N(=O)=O , P21/c ,1,0,1.87034366188,0.74132931381
4160, NEJGIS , O=N(=O)c1ccc(cc1)C1NCC2OC(NCC2O1)c1ccc(cc1)N(=O)=O , P212121 ,0,0,1.4567026327300001,0.699466886269
4161, BUMDOX , CC(C)(C)C1CCC2(C)C(CCCC2=NO)C1 , Pccn ,1,0,1.08493000499,0.6868950558069999
4162, GIJROJ , COC(=O)C(O)(C(C)N(=O)=O)c1ccccc1 , P212121 ,0,0,1.3900421419100002,0.701458560523
4163, DASQET , CC(C)C1CCC(C)C(=Cc2ccc(cc2)N(=O)=O)C1=O , P21 ,0,0,1.2351470322799998,0.6826295210169999
4164, NIPFUP , O=C(C=CC1=CC=C(O1)N(=O)=O)c1ccccc1N(=O)=O , P21/c ,1,0,1.4696343425999998,0.688688935453
4166, SEHJUN , COc1cc(CC2=Nc3ccccc3N2)c(cc1OC)N(=O)=O , Fdd2 ,0,0,1.35680110607,0.672975306733
4167, WUXHAY01 , O=N(=O)c1ccc(NN=Cc2ccccc2)c(c1)N(=O)=O , P21/c ,1,1,1.4620333412399997,0.7020255863539999