ID,name,smiles,space_group,inversion_symmetry,beta_packing,density,packing_coefficient
7267, BOPQUU , CCOC(=O)CCC1=CNc2ccc(cc12)N(=O)=O , Pca21 ,0,0,1.33357572949,0.669883693609
7269, SEJFIX , O=C(OCCC=CC1C2C3CCC(C3)C12)c1ccc(cc1)N(=O)=O , P-1 ,1,1,1.28809107159,0.6768457602339999
7270, TEKNOM , CC12C3CON1OC(OC1CCCCC1c1ccccc1)C(C3)C2c1ccccc1 , P-1 ,1,1,1.24361856389,0.677478882391
7272, SATJAB , CC12CCC3C4(C)CCC(O)CC54OOC3(C=C5)C1CCC2=NOCC(=O)Nc1ccccc1 , P212121 ,0,0,1.3251908259899998,0.701033207896
7273, SOCBOC , CCOC(=O)C1(NC(=O)C2CN(Cc3ccccc3)OC12)C#N , P21 ,0,0,1.4063871321399999,0.7139868068440001
7274, SAQYAK , O=C(OC1C2CC3C(C=C2)C13)c1cc(cc(c1)N(=O)=O)N(=O)=O , C2/c ,1,0,1.46292908861,0.6928897660600001
7275, NEZMUA , OC1=NOC=C1 , P21/c ,1,1,1.5897791128999998,0.746781842818
7276, NIJWEJ , CC(=O)Oc1c(C)c(C)c2OC(C)(CCc2c1C)C(=O)OCCCON(=O)=O , P-1 ,1,1,1.32169549306,0.670855978261
7277, NOACTD , NC(=O)CN(=O)=O , P21/c ,1,1,1.5921440931600002,0.7191142191140001
7278, DUVVOG , COC(=O)C1(CC(=C)C(C)(C1C1COC(C)(C)N1C(=O)OC(C)(C)C)N(=O)=O)C(=O)OC , C2/c ,1,1,1.3094686095999999,0.6739650106839999
7279, WEHKOK , CC1(C)N=C(C2=NNC=C2)N(=O)C1(C)C , P21/c ,1,1,1.2366702301,0.661600810537
7280, XIZZEL , CCCCCCN(CCCCCC)c1ccc(cc1)C=Cc1cc2CCc3cc(C=Cc4ccc(cc4)N(=O)=O)c(CCc1cc2C=Cc1ccc(cc1)N(CCCCCC)CCCCCC)cc3C=Cc1ccc(cc1)N(=O)=O , P-1 ,1,1,1.17314394926,0.6713980463979999
7281, PAPFIW , O=C1N(OC2CCCCCC=C2)C(=O)c2ccccc12 , P21/n ,0,0,1.3012504572299999,0.7649433184469999
7282, WACVIG , CC1(C)N(=C(C2=CC=CN2)N(=O)C1(C)C)[O] , P21/c ,1,0,1.2933705985100001,0.684975450082
7283, ZELCEY , COC(=O)CCC1=C(CC(=O)OC)C(C)(CC2=C(CC(=O)OC)C(=C(N2)C(=O)OC(C)c2ccccc2)CCC(=O)OC)N(N=O)C1=O , P21/n ,0,0,1.34078072062,0.6879827862510001
7284, YAPVAM , CC(OC1CC(=NO1)c1ccccc1)c1ccc2ccccc2c1 , P21 ,0,0,1.2256964348100001,0.662141577061
7285, JOZSIC , O=C1N(OCC(ON2C(=O)c3ccccc3C2=O)c2ccccc2)C(=O)c2ccccc12 , P21/n ,0,0,1.37705530998,0.6701675931809999
7286, SILPUZ , OCCNc1c2cccc3C(=O)N(CCO)C(=O)c(cc1N(=O)=O)c23 , P1 ,0,1,1.58399202562,0.7582520325200001
7287, PUWQUT , CC1(C)CCCC(C)(C)N1OC(=O)C1(O)CC(=O)C(=C1)ON1C(C)(C)CCCC1(C)C , Pca21 ,0,0,1.1790269114299998,0.668272765974
7288, YIXHOC , O=C(OCC1CCCC2(CCCCO2)O1)c1cc(cc(c1)N(=O)=O)N(=O)=O , P21 ,0,0,1.3911162452799999,0.6744184128030001
7289, BAPHAD , CC1(N(O)c2ccccc2)C(=O)Nc2ccccc12 , P212121 ,0,0,1.23392286847,0.6418107752359999
7290, QEDYOP , CCOc1ccc(C=Cc2ccc(cc2)N(=O)=O)cc1OC , P21/n ,0,0,1.30968617429,0.688828775084
7291, XICBOB , CCOc1ccc(cc1)C1=NN(C=C1C1C(C(ON1c1ccccc1)c1ccccc1)N(=O)=O)c1ccccc1 , P21/n ,0,0,1.30016348297,0.668076982037
7292, MUKHIK , CC(=O)C1C2CCCC(C(C1N(=O)=O)C1=CC=CO1)C2=O , P21 ,0,0,1.3578404671200002,0.685876890204
7293, SECVOL , O=N(=O)N1CCCN(C1C1N(CCCN1N(=O)=O)N(=O)=O)N(=O)=O , P-1 ,1,1,1.66439795437,0.714550685139
7294, MOVYUT , CCC1(CC)C2=CC=C(N2)C(C)(C2=CC=C(N2)C(CC)(CC)C2=CC=C(N2)C(C)(C2=CC=C1N2)c1ccc(cc1)N(=O)=O)c1ccc(cc1)N(=O)=O , P-1 ,1,1,1.1444317617,0.605692229863
7295, IDEFEC , CC1CCC(C(C1)OC(=O)c1cc(cc(c1)N(=O)=O)N(=O)=O)C(C)(C)c1ccccc1 , P212121 ,0,0,1.3146193504500001,0.678303424577
7297, UNUXOS , Oc1ccc(cc1C=NN1C=NN=C1)N(=O)=O , P21/n ,0,0,1.53881688611,0.701071472811
7298, MNPYDO19 , Cc1cn([O])ccc1N(=O)=O , P212121 ,0,0,1.5304386670899999,0.7296212982070001
7299, XUBCUS , CC(C)(C)C1CC2ON1CCC2=NO , C2/c ,1,0,1.22927938529,0.684991386736
7300, XEFQAD , CCN1c2ccccc2c2c1cc1c3ccccc3N(CC)c1c2N(=O)=O , P21 ,0,0,1.32973715494,0.7021146842579999
7302, BIZLEC , CCCCCCCCNc1cccc(NCCCCCCCC)c1N(=O)=O , C2/c ,1,1,1.1823771247,0.709912188003
7304, NETKEE , O=N(=O)c1ccc(ON=C2CCCCC2)cc1 , P21/c ,1,0,1.37968936306,0.711510432265
7305, QOTGEL03 , O=N(=O)c1ccc(NC2CCCCCCC2)nc1 , Pca21 ,0,0,1.2768814801000001,0.6878559780679999
7306, NURWAY , CC1OCC2OC(C)OC(C2O1)C1=NOC2C=COC12 , P212121 ,0,0,1.32228189878,0.641455220823
7307, LEGKUF , [O]n1cccc2cc(ccc12)c1ccc(cc1)N(c1ccccc1)c1ccccc1 , P21/c ,1,0,1.26288826035,0.6678778121060001
7308, FIYCUL , COc1ccc(cc1OC)C(CN(=O)=O)C1N=C(OC)C(N=C1OC)C(C)C , P21 ,0,0,1.25047510733,0.651208048763
7309, REZHAI , CCOc1ccccc1C1C(NC2(C1C1=C(C(=NO1)C)N(=O)=O)c1ccccc1c1nc3ccccc3nc21)c1ccccc1 , P21/n ,0,1,1.27427010662,0.656222662466
7311, SUVGUN , CC(=Cc1ccccc1)c1ccccc1C(C)=NO , P21/n ,0,1,1.16837359995,0.656895316266
7313, OMIWIQ02 , O=N(=O)C1=CC=N2C(=CC(=N12)N(=O)=O)N(=O)=O , Pca21 ,0,0,1.83710320495,0.759659151053
7314, OXEJIL01 , O=N(=O)c1cccc(c1)C1O[N+](=C2CCCCCC12)[O-] , P21/n ,0,0,1.3685102185299998,0.6921938586759999
7315, CELJUB , CON1C(=O)C2C3CC(C=C3)C2N2C(=O)CCC12C(=O)OC , P-1 ,1,1,1.4444768146899998,0.7195021645020001
7317, REFXOP , CC1(C)N([O])C(=N([O])C1(C)C)C1=NC=CN1 , P21/a ,0,0,1.2825103256000001,0.669151515152
7318, HECLIM , CCCN1C=C(C=N1)N(O)C(C)(C)C , P21/n ,0,0,1.1289656281799998,0.6575582614
7319, VEPFOO , CCOC(=O)C1=C(C)N(C)CC(C1c1cccc(c1)N(=O)=O)C(=O)OC , P21/n ,0,0,1.33736248265,0.6848465541040001
7320, IDEDUQ , CC1CCC(C(C1)OC(=O)c1cc(cc(c1)N(=O)=O)N(=O)=O)C(C)(C)c1ccccc1 , P32 ,0,0,1.29522027644,0.666972140762
7321, POFHID , CNC1=C(C(c2ccc(C)cc2)C2=C(CC(C)(C)CC2=O)O1)N(=O)=O , P21/c ,1,0,1.2972466280700001,0.677920081967
7322, VOPZAB , CC1=C(N2C=CC=CC2=C1)N(=O)=O , P21/c ,1,0,1.42119309442,0.7150422352179999
7323, TAJLAR , CC(C)C(C)(c1ccccc1)C(C)(C(C)C)c1ccc(cc1)N(=O)=O , P212121 ,0,0,1.1972006046299999,0.686261439199
7325, VELZUI , COCCOC(=O)C1=C(C)NC(=C(C1c1cccc(c1)N(=O)=O)C(=O)OCC=Cc1ccccc1)C , Fdd2 ,0,0,1.31845336871,0.682650717703
7326, UCAYOO , CCC(C(C(CN(=O)=O)NC(C)=O)C(=O)c1ccccc1)c1ccccc1 , R3 ,0,0,1.22485030235,0.649822839517
7327, VOFWUI , O=C(C1NC1c1ccc(cc1)N(=O)=O)c1ccccc1 , P21/n ,0,0,1.3609773154,0.704032908895
7329, KEFGIN , COc1ccc(CN2N=C(NC(=O)c3ccc(cc3)N(=O)=O)C(=C2N)N=Nc2ccc(OC(=O)OC(C)(C)C)cc2)c(OC)c1 , C2/c ,1,0,1.3944835220299998,0.696366080156
7331, SEZMOA , Nc1ccc(cc1)C(=O)Cc1ccc(cc1)N(=O)=O , Pna21 ,0,0,1.4022889264200002,0.7064434879639999
7332, KAXLOL , Cc1cc(c(C)c(c1N(=O)=O)N(=O)=O)N(=O)=O , Pn ,0,0,1.59347536139,0.7193287540209999
7333, YEFWEO , CC(C)c1ccc(cc1)C=NN=Cc1ccc(cc1)N(=O)=O , P-1 ,1,1,1.3336361140700002,0.7068721433480001
7334, VAFCOV , O=C1c2ccccc2C(=O)c2cc(CON(=O)=O)ccc12 , P21/c ,1,0,1.53697227878,0.7274621999169999
7335, PESPUY , OC(C1CCC[N+]1([O-])Cc1cccnc1)(c1ccccc1)c1ccccc1 , P212121 ,0,1,1.26253465142,0.694238798567
7336, ZOYHOM , COC(=O)C1(CCCC1CC(=NNc1ccc(cc1N(=O)=O)N(=O)=O)c1ccccc1)C(=O)OC , P21 ,0,1,1.39317822898,0.6892586249079999
7337, XUHREX , C=CC1=NOC(C1)C1=NOC(=C1)N(=O)=O , P21/n ,0,0,1.5301307185,0.714370385423
7338, DOKYIL , O=N(=O)c1ccc(NN=C(c2ccccc2)c2ccccc2)cc1 , Pcab ,0,0,1.32775509402,0.6858570198109999
7339, ZAPTAN , CCCCC(Oc1ccc(cc1C=O)N(=O)=O)C(=O)OC , P21/n ,0,0,1.31132230951,0.668017777778
7340, NIMDOC , O=C(C=Cc1cccc(c1)N(=O)=O)c1ccc2ccccc2c1 , P21/c ,1,0,1.3762044794200001,0.719460079216
7341, HOLXIR , CC(=O)N1Oc2ccccc2CCC1O , Pca21 ,0,0,1.36151451603,0.7083125933300001
7342, ECUYOR , COC=C1C(c2ccccc2N(=O)=O)C(=C(C)NC1=O)C(=O)OC , P21/c ,1,0,1.44025909775,0.714556499709
7343, SOBFOE , O=C1NC2C(N(C3NC(=O)N(C3N2N(=O)=O)N(=O)=O)N(=O)=O)N1N(=O)=O , F2dd ,0,0,1.9703326491599997,0.750978046896
7344, OHIPOL , O=N(=O)c1ccc(cc1)C=NN=C(NC1CCCCC1)Nc1ccccc1 , Pca21 ,0,0,1.23504063185,0.662070633769
7345, IWOPEQ , CCC(CC)COc1cc(ccc1NC(=O)c1ccc(c(OCC(CC)CC)c1)N(=O)=O)C(=O)OC , P-1 ,1,1,1.31739451907,0.711633167605
7346, GEJLEM , CN(CCc1ccc(cc1)N(=O)=O)c1ccc(C)cc1 , P31 ,0,0,1.23072941713,0.672449729887
7347, CUPBAR , CC(C)(C)NC(=O)C1=NOC(=C1c1ccccc1)NC(C)(C)C , P21/n ,0,0,1.16029570927,0.6449359527440001
7348, DOYLAG , CN1C=C(C(=O)C(=O)c2ccc(cc2)N(=O)=O)c2ccccc12 , P21/c ,1,0,1.4137026609999999,0.69520529222
7349, QIHRUU , OC1C(O)C2CON(C2C1O)c1ccccc1 , P212121 ,0,0,1.38152292637,0.689916353364
7350, DIJNUG , CC1C(C)(CCC1(CC=C)C#N)OC(=O)c1ccc(cc1)N(=O)=O , P21/c ,1,1,1.23554861685,0.651979260675
7352, JUGQAF , CCOC(=O)c1ncc(nc1c1ccc(cc1)N(=O)=O)c1ccc(C)cc1 , P-1 ,1,1,1.34015483373,0.683473251029
7353, CEGCOI , CC(=O)NCCC1=CNc2ccc(OC(=O)Oc3ccc(cc3)N(=O)=O)cc12 , P21/c ,1,0,1.39820858662,0.6791784221080001
7354, TAJZIQ , CCN(CC)c1ccc2c(Oc3cc(ccc3C32N(C(=O)c2ccccc32)c2ccc(cc2OC)N(=O)=O)N(CC)CC)c1 , P-1 ,1,1,1.30075208945,0.679116507509
7355, WILBEY , O=N(=O)C1=C(NN=C1c1ccccc1)c1ccccc1 , P21/c ,1,0,1.6468187513199999,0.745973077234
7356, NITPOL05 , Oc1ccc(cc1)N(=O)=O , P21/c ,1,0,1.5321540955700002,0.729345737688
7357, WANSAH , COC1N(=C(CC1(C)C)C=Cc1ccc2ccc3cccc4ccc1c2c34)[O] , P21/n ,0,0,1.2932382149600001,0.693866459627
7358, ZOHSOE , O=N(=O)N(CCC#N)CCC#N , P21/c ,1,1,1.35759999443,0.690271132376
7359, UJULOA , NC(CCC(N)=NO)=NO , P21/n ,0,0,1.4865925525400001,0.76785304248
7360, ZURYIW , CC(COc1ccc(cc1OCC(C)(C1=CC=CN1)C1=CC=CN1)N(=O)=O)(C1=CC=CN1)C1=CC=CN1 , P-1 ,1,1,1.35550591375,0.688051342597
7361, JECVIW , COC(=O)C1CC(CO)ON1C(c1ccccc1)c1ccccc1 , P21/n ,0,0,1.33165169392,0.680744721752
7362, OVIJEJ , COC(=O)C12CCC(C)(C)CC1C1=CCC3C4(C)CC(O)C5OC(OCC5(C)C4CCC3(C)C1(C)CC2)c1ccc(cc1)N(=O)=O , P212121 ,0,0,1.2621373281000001,0.6826268564360001
7363, IGEDAB , O=C(Nc1cccc[n+]1[O-])C1CCC1c1ccccc1 , P-1 ,1,1,1.33775779065,0.702400671393
7365, TARZUJ , CC(=NO)C(C)=NNC(=O)c1ccncc1 , P21/c ,1,0,1.37421867252,0.703111111111
7367, VAYLOW , O=C1Oc2ccccc2c2ccc(cc12)N(=O)=O , P1121/b ,0,0,1.53743369229,0.687532120465
7368, WUVBIY , O1N=C(ON=C1c1ccccn1)c1ccccn1 , P21/n ,0,0,1.4552420335499998,0.7312234293809999
7369, RENFOH , None , P21/m ,0,0,1.1864721157,0.800368563686
7371, RILTEL , CC1(C)OC2OC(C(OCc3ccccc3)C2O1)C(N(O)Cc1ccccc1)C1=CC=CO1 , P212121 ,0,0,1.23885526592,0.655810711381
7372, LIWLOS , CCCC(=O)Nc1ccc(Cc2ccccn2)c(c1)N(=O)=O , P-1 ,1,0,1.3654845199899999,0.632249350649
7373, IDIBII , CN(C)c1ccc(C=Cc2ccc(cc2)C=C2C(=O)ON=C2c2ccccc2)cc1 , P212121 ,0,0,1.29747502996,0.7028579059829999
7374, FAQRAQ , O=N(=O)c1ccc(Nc2c3ccccc3nc(Nc3ccccc3)c2N(=O)=O)cc1 , P-1 ,1,1,1.49191832174,0.7264
7375, MOKMAB , Cc1cccc(C2=NCCO2)c1N(=O)=O , P21/m ,0,0,1.41727688941,0.701127701128
7377, FEPGAI , COC1CC(OC(=O)c2ccc(cc2)N(=O)=O)C(COC(=O)c2ccc(cc2)N(=O)=O)O1 , P212121 ,0,0,1.45748541894,0.680229696473
7378, MUJKEH01 , O=C(NN=Cc1cccc(c1)N(=O)=O)c1ccncc1 , P21/c ,1,0,1.4839770191600001,0.7295042985179999
7379, LIRLEF , O1N=C(C=C1c1ccccc1)C1=NOC(=C1)c1ccccc1 , P-1 ,1,1,1.42250440438,0.725207631874
7380, BEFQOT , CC1CC2CC(=O)C34CCC(O3)N(O)CCCC24C(=O)C1 , P212121 ,0,0,1.34918955214,0.708448166207
7382, UXUHUS , NC1=C(C#N)C(c2ccc(cc2)N(=O)=O)C2=C(CCCC2=O)O1 , C2/c ,1,0,1.3887874325799998,0.667842282544
7383, YOKLIV , OCC1CCC(CC(=O)c2ccccc2)C(C1c1ccccc1)N(=O)=O , C2 ,0,0,1.32717241206,0.717519106408
7384, BOTMUT , O=C1N2CCCCCC2=Nc2c1cc(cc2N(=O)=O)N(=O)=O , P21/c ,1,1,1.50877861354,0.704245904726
7385, FAMFUU , CC(OC(c1ccccc1)(c1ccccc1)c1ccccc1)c1ccc(cc1)N(=O)=O , P-1 ,1,1,1.2738559322399998,0.673359683794
7386, SEMXUE , CCOC(=O)C(C#N)=C(O)c1ccccc1N(=O)=O , P21/c ,1,0,1.4179418418,0.6871990256389999
7387, COWBIB , CON1C(=O)c2ccc(cc2C2=C1CCCCCC2)C(=O)OC , P-1 ,1,1,1.32531661448,0.6961395946760001
7388, RUVSEG , COc1cc(cc(OC)c1OC)N(=O)=O , P21/n ,0,0,1.4188779769,0.6901098901100001
7389, WIQSOE , CON(C)C(=O)C12OC1C(C)OC2=O , P212121 ,0,0,1.4216021706,0.6968924083429999
7390, QIZMER , CCCCCCCCCCOc1cc(OCCCCCCCCCC)c(cc1C(=O)Nc1cc(C(=O)Nc2ccccc2OC)c(OC)cc1OC)N(=O)=O , P-1 ,1,1,1.22102215481,0.672506019109
7391, NIWROB02 , O=C1NC(Nc2ccccc12)c1cccc(c1)N(=O)=O , P21/n ,0,1,1.4984058515399998,0.7298243451459999
7392, PAXQAI , CC1(C)CC(=O)C2=C(C1)OC1=C(C2C=Cc2ccccc2N(=O)=O)C(=O)CC(C)(C)C1 , C2/c ,1,0,1.26431609831,0.6684268449399999
7393, KAQXIL , CC(C)(C)NC(=O)C1C2C3CC(C=C3)C2CN1c1ccccc1N(=O)=O , P212121 ,0,0,1.27235841081,0.684177917321
7394, YEYMAR , NC(=NO)c1ccc(cc1)N(=O)=O , Pbca ,1,0,1.4540087172799998,0.686208774297
7395, PUBMUU16 , O=N(=O)N1C2C3N(C4C1N(C(C(N2N(=O)=O)N3N(=O)=O)N4N(=O)=O)N(=O)=O)N(=O)=O , P21/n ,0,0,2.03497377642,0.760651767617
7396, DMAOCD , None , Pbca ,1,0,1.22701146503,0.6809455859970001
7397, OHNODC , OC12CCCCC1C(=O)CCC2N(=O)=O , P21 ,0,0,1.3619511677899998,0.698899176205
7398, PIKQEF , O[N+]1(CCC1C(=O)[O-])Cc1ccccc1 , Pbca ,1,0,1.37893619757,0.71867768595
7399, WIBCAL , CC(=O)C1=C(N)C2=NON=C2N=C1C , Pccn ,1,0,1.50863150991,0.7289722222220001
7401, YAMLOP , CC1=NN(C(N2N=C(C)C=C2C)C(=O)NCCN2C(=NC=C2N(=O)=O)C)C(=C1)C , P21/c ,1,0,1.32719080168,0.6786992909899999
7402, FAPXEZ , ON=CC1=C2CC(=CC=C1)C1=CC=CC=C(C1)C=C2 , P21/c ,1,0,1.2512974685299998,0.677213013275
7403, RUTPED , O=N(=O)c1ccc(CN2N=NC(=C2N(Cc2ccccc2)Cc2ccccc2)c2ccccc2)cc1 , P21/c ,1,0,1.27230056999,0.663921802419
7404, KOWXOJ , CC(=NO)c1ccccn1 , P21/c11 ,0,0,1.3030162301000001,0.711701588561
7405, RAFSUN , CN1C(=O)C(=Cc2ccc(cc2)N(=O)=O)c2ccccc12 , P21/c ,1,0,1.44960174706,0.720388588293
7406, IVOQAN , O=C(CCN(CC(N(=O)=O)(N(=O)=O)N(=O)=O)N(=O)=O)N=[N+]=[N-] , P21/n ,0,0,1.7338329266499999,0.7170352431329999
7407, KAXWEM01 , CCOC(=O)C1=NOC(CC(NC(=O)OC(C)(C)C)C(=O)OC)C1 , Pcab ,0,1,1.2185441724500001,0.633298278173
7408, ESAXIH , COC(=O)C1=COC(=C1C(=O)OC)c1ccccc1N(=O)=O , P-1 ,1,1,1.46198882116,0.69213836478
7409, KIRZAO , O=C1NCc2ccc(OCCOCC=CCOCCOc3ccc(CNC(=O)c4cc1cc(c4)N(=O)=O)cc3)cc2 , P21/n ,0,0,1.37096504581,0.7177408637870001
7411, EFICEC , CC(=C)C1CCC2C(C)(CCCC12C#N)OC(=O)c1ccc(cc1)N(=O)=O , P-1 ,1,1,1.21346952165,0.6419307929720001
7412, XEXYOO , COC1N(C(OC)N(C(OC)N1N(=O)=O)N(=O)=O)N(=O)=O , C2/c ,1,0,1.60484748317,0.690720429618
7413, ZUHRID02 , OC1CCN(CC1)c1ccc(cc1)N(=O)=O , P21/c ,1,0,1.4008243469400001,0.700428442844
7414, REMVAJ , CC1(C)OC2(C(Cc3ccccc3)Oc3ccccc23)N(O)C1=O , R-3 ,1,0,1.01004126334,0.5166838842979999
7415, JONHEB , COC(=O)C1=CC(CC(O)(O1)C(=O)OC)c1ccc(cc1)N(=O)=O , P-1 ,1,1,1.4759121018999999,0.697306152166
7417, WACBIL , COc1ccc(CC2C3CCC(C)(C2OC(=O)c2ccc(cc2)N(=O)=O)C3(C)C)cc1 , P212121 ,0,0,1.21885167124,0.673673979828
7418, QEBDAF , CON=[N+]([O-])C(CN1C=CC(=N1)N(=O)=O)[N+]([O-])=NOC , P21/n ,0,0,1.49338507819,0.680875125572
7419, GIGZOM , CC1(CC(CC(C1)=NO)c1ccccc1)C#N , P21/n ,0,0,1.23451942229,0.685053159777
7420, LOJHID , O=C1Nc2ccccc2C21C(C(C1CCCN21)c1ccc(cc1)N(=O)=O)C1=Nc2ccccc2C(=O)N1c1ccccc1 , P21/c ,1,0,1.34753917949,0.669577922078
7421, NIMKUP , OC1CCOC(=O)C1C1CCC2C3C(CCOC3=O)ON12 , P21/n ,0,0,1.45440488744,0.715832435803
7422, PYRDNO16 , [O-][n+]1ccccc1 , P41212 ,0,0,1.3907113254799999,0.746109703769
7423, TUVNEF , OCCCCCNc1cc(NCCCCCO)c(cc1N(=O)=O)N(=O)=O , P-1 ,1,1,1.37905242709,0.7035346199070001
7424, WEKCEV , CC1(C)OCC(O1)C(OC(=O)c1cc(cc(c1)N(=O)=O)N(=O)=O)C(C=Cc1ccccc1)C(OC(=O)C1COC(C)(C)O1)c1ccccc1 , P212121 ,0,0,1.31028355477,0.656312752715
7426, JITWIS , Cc1cc(C)c(c(C)c1)C(=O)C=C(O)c1ccc(cc1)N(=O)=O , P21/c ,1,0,1.25047186719,0.644827088297
7427, NPNFPR , O=C(C=CC1=CC=C(O1)N(=O)=O)c1ccc(cc1)N(=O)=O , P-1 ,1,1,1.52270803932,0.7141126158230001
7428, VEDZAH , COc1ccc(CN2C=C3C(=N2)C=CC=C3N(=O)=O)cc1 , P-1 ,1,1,1.37176603826,0.6915510204080001
7429, XEFPOQ , CCCCCCN1c2ccc(cc2c2c1c(c1ccccc1)c1c3cc(ccc3N(CCCCCC)c1c2c1ccccc1)N(=O)=O)N(=O)=O , P21/c ,1,0,1.26378322915,0.672
7430, CIKVEZ , COC(=O)C1C(C(C(NC1=O)c1ccc(C)cc1)N(=O)=O)c1ccc(C)cc1 , P-1 ,1,1,1.22470682039,0.632337662338
7432, QEDDIP , CC1=CC(=O)C23CC2(C(=O)CC3C1)c1cc[n+]([O-])cc1 , P212121 ,0,0,1.3868146783500002,0.71739236314
7433, UGECOZ , CCCCCC(=C=C=C(CCCCC)c1ccccc1)C(=O)c1ccc(cc1)N(=O)=O , P-1 ,1,1,1.15496993673,0.653384705738
7434, HEMCEK , COc1cc(ccc1Nc1ccc(OC)c(OC)c1)N=O , P21/n ,0,0,1.38516502387,0.7169152402879999
7435, GIKKIV , CCOC(=O)[C-]([n+]1ccccc1)c1c(cc(cc1N(=O)=O)N(=O)=O)N(=O)=O , C2/c ,1,0,1.5965227113299998,0.7361087144089999
7436, CHMDIM , CN=N([O])C1CCCCC1 , Pnma ,1,1,1.1744079518600001,0.6939552964040001
7438, KERSIK , COc1cccc(C=NNc2ccc(cc2N(=O)=O)N(=O)=O)c1OCCOc1ccc(cc1N(=O)=O)N(=O)=O , P-1 ,1,1,1.52857923996,0.703214695752
7440, TABMOB , O=C1OC(C(CN(=O)=O)c2ccccc2)(C(=O)N1c1ccccc1)c1ccccc1 , P21 ,0,0,1.32143543785,0.659878481307
7441, JIJROJ , COC1OC(CON(=O)=O)C(ON(=O)=O)C(O)C1ON(=O)=O , P212121 ,0,0,1.61210896193,0.689996796778
7442, BOBLEK , COCOC1(C)CCC(O)(C(COC(=O)c2ccc(cc2)N(=O)=O)C1(C)CCOCc1ccccc1)C(C)=C , P212121 ,0,0,1.2307661257200002,0.658475439725
7443, VEHGAT , CC=CCC1NC(=O)C(CC(C)C)NC(=O)C(CC(C)C(O)=O)N(C)C(=O)C(C)NC(=O)C(Cc2ccc(O)c(c2)N(=O)=O)NC(=O)C(CC(C)C)N(C)C(=O)C(CC2=CN(c3ccccc23)C(C)(C)C2CO2)NC1=O , P212121 ,0,0,1.0538243430399998,0.563519736842
7444, DEMNOY , CC1=CC(C)(N(=O)=O)C(C)(N(=O)=O)C(C)(C1=O)N(=O)=O , P21/n ,0,0,1.47824100715,0.691555085741
7447, WOJKIQ , CC1C(OC(=O)c2cc(cc(c2)N(=O)=O)N(=O)=O)C(c2ccccc2)C1(O)c1ccccc1 , P21/c ,1,0,1.4200742696200002,0.707572431958
7449, TAPPIK , CN(C)c1ccc(Oc2ccc(cc2)N(=O)=O)cc1 , P21/n ,0,1,1.33359310073,0.682336182336
7451, YOLXAY , ONC1CCCCC1NO , C2/c ,1,0,1.32425388656,0.6198004446050001
7452, YODHAC , CCOC(=O)CC1CC(=O)CC(C1N(=O)=O)c1ccccc1 , P21 ,0,0,1.24707389066,0.651050803766
7454, FUZZAB , ONC(=O)c1cccnc1 , Pca21 ,0,0,1.4996195936899999,0.741494573643
7455, JIRTEK , O=N(=O)c1cccc(C=CN2c3ccccc3c3ccccc23)c1 , P21/c ,1,0,1.41994280551,0.735144654622
7456, AMNIFL , Nc1ccc2c(Cc3cc(ccc23)N(=O)=O)c1 , P21/n ,0,0,1.4515945519799998,0.7305293147399999
7457, UDOYOC , CC1C(COC(=O)c2cc(cc(c2)N(=O)=O)N(=O)=O)C(COC(=O)c2cc(cc(c2)N(=O)=O)N(=O)=O)OC21CCC(C)(C)O2 , P212121 ,0,0,1.4372555960100002,0.678545921214
7458, NERRAE , COc1cc(ccc1OC(=O)c1ccccc1)C=NNc1ccc(cc1)N(=O)=O , P21/n ,0,0,1.36122477629,0.674701566528
7459, FAGPEK , COCCC#CC(C)C(C)(OC(=O)c1ccc(cc1)N(=O)=O)c1ccccc1 , Cc ,0,0,1.25739062839,0.680890097557
7460, QOPWID , COc1ccc2NC(CC(c3ccccc3)c2c1)c1cccc(c1)N(=O)=O , P-1 ,1,1,1.2611826266600001,0.653958130165
7462, EMIGOY , CC=C(C)C1=CCC2(COC(=O)c3ccc(cc3)N(=O)=O)C(C)CCC=C12 , P-1 ,1,1,1.23618425478,0.66543319694
7465, TUDZUO , CC(C)N(C)[N+]([O-])=NOC1OC(COC(C)=O)C(OC(C)=O)C(OC(C)=O)C1OC(C)=O , P212121 ,0,0,1.34667941931,0.6818138651469999
7466, ZICBES , OC(=O)C(ON=Cc1ccccc1)c1ccccc1 , C2/c ,1,0,1.2874842714899999,0.679120126449
7467, DAZQUR , COC(=O)C1CC(C2OC3OC(C)(C)OC3C3OC(C)(C)OC23)N(Cc2ccccc2)O1 , P21 ,0,0,1.26168943729,0.644482299499
7468, GICTIV , O=N(=O)N1C=NC(=N1)N=NC1=NN(C=N1)N(=O)=O , P21/a ,0,0,1.8302452533400002,0.7477456098720001
7470, XITSAV , COC(=O)C1(C(C)C(ON(Cc2ccccc2)C1c1ccccc1)c1ccccc1)C(=O)OC , P21/n ,0,0,1.2169987923899999,0.645561705806
7472, UMATUX , [O]n1ccc(CCCc2ccn([O])cc2)cc1 , Pnma ,1,1,1.2749962943200002,0.666361416361
7473, WIQJUD , COC(=O)C1=C2C(=CC=C(C=C2C(=CC=C1C=Cc1ccc(OC)cc1)C=Cc1ccc(cc1)N(=O)=O)C(C)C)C , P21/c ,1,0,1.24628741323,0.6744969070550001
7474, OVOLAO , OC(CC=C)(C(OC(=O)c1ccc(cc1)N(=O)=O)C(C=C)c1ccccc1)c1ccccc1 , P21 ,0,1,1.2285508599200001,0.638932230717
7475, MNPHOL15 , Oc1cccc(c1)N(=O)=O , P21/n ,0,0,1.5035499773199998,0.718491786959
7476, CEGWAO , O=N(=O)c1cccc(c1)N=CC=C(c1ccccc1)c1ccccc1 , P21/n ,0,0,1.29429723384,0.6808152173909999
7477, PMBSYD , CC(C)C(=C)C1=[N+]([N-]OC1=O)c1ccccc1 , P21/c ,1,0,1.23944397896,0.665978644862
7478, QATYAO , CC(=O)C1=C(N(N=N1)c1cccc(c1)N(=O)=O)C1=CN(N=C1c1ccccc1)c1ccccc1 , P21/c ,1,0,1.36347470734,0.677500559409
7479, NMHXNT , OCC1CC2(CC3(CC3C1N2O)N(=O)=O)N(=O)=O , P21/c ,1,0,1.5810640084799998,0.7342392515039999
7480, OJACAE , ONC(=O)C1=Cc2cc3CCCN4CCCc(c2OC1=O)c34 , P21/c ,1,0,1.50077340249,0.740631517571
7481, ISUHOV , CCCCC1CC2CC=CCC2C1COC(=O)c1cc(cc(c1)N(=O)=O)N(=O)=O , P21 ,0,0,1.32755732966,0.717995833953
7484, REMLON , O=C(OC1CCCC(C2OC12)N(Cc1ccccc1)Cc1ccccc1)c1ccc(cc1)N(=O)=O , P-1 ,1,1,1.31786284108,0.685503840712
7485, NBZOAC04 , OC(=O)c1ccc(cc1)N(=O)=O , A2/a ,0,0,1.64838113799,0.764068751761
7487, IMOMIG , CC=C(C)C=C(C)C=C(C)C=CCOC(=O)c1cc(cc(c1)N(=O)=O)N(=O)=O , P21/n ,0,0,1.3341514214399999,0.709557464893
7488, HESYEK , CCCC1(CCC)c2cc(ccc2c2ccc(cc12)N(=O)=O)N1CCCC1 , P21/c ,1,0,1.16304343848,0.637056683471
7489, OWADUN , CC1(C)CCCC(C)(C)N1OC1CC(CO)N(Cc2ccccc2)C1=O , P21 ,0,0,1.17261262565,0.657332725754
7490, GIPRUU , O=C1N(CC(=Cc2ccc(cc2)N(=O)=O)C#N)C=Nc2ccccc12 , P21/c ,1,0,1.3900832605899998,0.6833439129009999
7492, IPUNUE , OC1(C=C(C(=O)N1OCc1ccccc1)c1ccccc1)c1ccccc1 , Pca21 ,0,0,1.31116052162,0.683216389466
7493, DEKLAJ , O=C(OCc1ccccc1)N1OC2C=CC1C(COC(=O)c1ccc(cc1)N(=O)=O)C2=NOC(=O)c1ccc(cc1)N(=O)=O , P21/c ,1,0,1.50845446668,0.718287067685