ID,name,smiles,space_group,inversion_symmetry,beta_packing,density,packing_coefficient
6554, PUBMUU05 , O=N(=O)N1C2C3N(C1C1N(C(C(N3N(=O)=O)N1N(=O)=O)N2N(=O)=O)N(=O)=O)N(=O)=O , P21/n ,0,0,2.0324366883300002,0.759591243905
6555, GUYSIC , CCCCCCCCCCCCCCCCOCC1CCCN1c1ccc(cc1)N(=O)=O , P212121 ,0,0,1.11597497643,0.662660745295
6556, XIMCED , COC(=O)CC[CH]1=[N+]([O-])OC(CC1c1ccc(OC)c(OC2CCCC2)c1)OC1CCCCC1c1ccccc1 , P212121 ,0,0,1.2933604793200002,0.6994286807719999
6557, YOWYUE , CC(C)=CCCC(C1CCC2(C)C3=C(CCC12C)C1(C)CCC(=NO)C(C)(C)C1CC3)C(O)=O , P21 ,0,0,1.1198463911799998,0.648222011185
6558, AGAXUD , O=N(=O)c1ccc(Cc2ccncc2)cc1 , P21/c ,1,0,1.34981117178,0.685819001169
6559, HEXDAS , CCOC(=O)C12CCC(=O)C=C1CCC(C)(C2)N(=O)=O , P21/c ,1,0,1.35605786449,0.705756077028
6560, PAWZIX , CC(C)(C)N(O)c1cccc(c1)c1cncnc1 , P-1 ,1,1,1.22666284448,0.666825025168
6561, FITFIY , CC(C=O)=CC=CC=C(C)C1=[N+]([O-])C(C)(C)C(C)(C)N1[O] , Pbca ,1,0,1.20933005435,0.676349902534
6562, IWURID , CCCCC1=[N+]([O-])C(c2ccccc2)C(O)(Cc2ccccc2)C1=C(c1ccccc1)c1ccccc1 , P21/c ,1,0,1.19355500386,0.661798161798
6563, TATNBZ03 , Nc1c(c(N)c(c(N)c1N(=O)=O)N(=O)=O)N(=O)=O , P-1 ,1,1,2.0160516095700003,0.8124139950229999
6564, QQQAZG03 , CC(=O)C(=NNc1ccc(C)cc1N(=O)=O)C(=O)Nc1ccccc1 , P21/n ,0,1,1.41304643826,0.705716844831
6565, DOVCIB , Cc1ccc(cc1)C=Cc1c(cc(c(C=Cc2ccc(C)cc2)c1N(=O)=O)N(=O)=O)N(=O)=O , P-1 ,1,1,1.3636852984999999,0.677517403667
6566, QQQFNG03 , Nc1ccc(cc1N(=O)=O)N(=O)=O , P21/c ,1,0,1.66812804913,0.7450607287450001
6567, QOVTEB , O=N(=O)c1ccc(NCCCCCCCCNc2ccc(cc2N(=O)=O)N(=O)=O)c(c1)N(=O)=O , P21/c ,1,0,1.47911538937,0.721030720643
6568, DNBZIL , O=C(c1ccc(cc1)N(=O)=O)C(=O)c1ccc(cc1)N(=O)=O , P-1 ,1,1,1.54392164275,0.7180759803919999
6570, CEKVIX , CON=C1C=CNC(=O)C=C1 , P-1 ,1,1,1.38857845734,0.707831790123
6572, XAMBIY , O=C1OCCN1C(OC(=O)c1ccccc1)=Cc1cccc(c1)N(=O)=O , P21/n ,0,0,1.4721918492200001,0.717852145746
6573, HEJMAM , CCOC12OC3(N=C1c1ccc(cc1)N(=O)=O)C(C1CCCCC1)N(C(=O)C3C2c1ccccc1)c1ccccc1 , P-1 ,1,1,1.2928701463299999,0.6752852182539999
6574, CECFIB , NC(=O)C1CCN(Cc2ccccc2)O1 , P21/n ,0,1,1.36851408405,0.730515654809
6575, VAWWEX , O=N(=O)c1cccc2cc3CC4CC(Cc5cc6cccc(c6nc45)N(=O)=O)c3nc12 , R-3 ,1,0,1.43137828641,0.693590276667
6576, IDUWUZ , CCC1ON=C(N1C(C)=O)c1ccc(C)cc1 , P21/c ,1,0,1.20529031282,0.6460672332590001
6577, QUMSIC , COc1ccc(cc1)N1C(ON=C1c1ccc(C)cc1)c1cc2cc(C)ccc2nc1N1C=NC=N1 , P-1 ,1,1,1.34262006055,0.685547346564
6578, TELNED , COC(=Cc1ccc(cc1)N(=O)=O)C(=O)c1ccccc1 , Pbca ,1,0,1.31901897994,0.668286139602
6579, VIDCES , Cc1c(nc2CC(C)(C)CC(=O)c2c1c1ccc(cc1)N(=O)=O)c1ccccc1 , Cc ,0,0,1.25197811911,0.656633383645
6580, AQIKAM , CC1(C)N([O])C(=N([O])C1(C)C)N1N=Nc2ccccc12 , P21/c ,1,0,1.3492276458899999,0.690666666667
6581, LOLGAV , O=N(=O)c1ccccc1N1C=C(N=N1)c1ccccc1 , P21/n ,0,1,1.37796679324,0.6818737417309999
6583, YOJPUK , COc1cccc(OC)c1C(N=O)=C1N(C(=O)C(C)(C)C(=O)N1c1c(C)cc(C)cc1C)c1c(C)cc(C)cc1C , Pca21 ,0,0,1.2742516024400001,0.679733000529
6584, CIRKOF , CCCCCN=C(N1CCOCC1)C(=NO)c1ccccc1 , P21/a ,0,0,1.22880964625,0.698907721281
6585, TUWFOG , CN1C(=O)C2CC(O)(C=CC2C1=O)C(O)c1ccc(cc1)N(=O)=O , C2/c ,1,0,1.48183783736,0.717374406807
6586, QUMMOB , CC1(C)OC2OC3C4COC(Cc5ccc(cc5)N(=O)=O)(CC3(OCc3ccccc3)C2O1)O4 , P212121 ,0,0,1.35671657385,0.6746639231820001
6587, DOTTOV , CCOC(=O)C1=C(C)NC(=C(C1C1=C(C)ON=C1c1ccccc1)C(=O)OCC)C , Pbca ,1,0,1.2887217244,0.6769693613879999
6588, NSPIBP , CC1(C)c2ccccc2N(c2ccccc2)C21Oc1c(cccc1N(=O)=O)C=C2 , P1121/n ,0,0,1.29729500396,0.670097252384
6589, KEJSUN , OCC1OC2(C=C1)C(=O)N(Cc1ccccc1)CC2=NO , P212121 ,0,0,1.30707415735,0.661602678193
6590, YOKJOY , CC1=NN(C(=C1)C)c1nnc(Nc2c(cc(cc2N(=O)=O)N(=O)=O)N(=O)=O)nn1 , P21/c ,1,0,1.5661895624200002,0.68100825348
6591, MOKFIC , COc1ccc(c2CC3(Cc12)NC(=O)C(Cc1ccccc1)NC3=O)N(=O)=O , P21 ,0,1,1.42568812505,0.70578525641
6592, FOVVUH01 , O=C1ON=C(N1c1ccccc1)c1ccccc1 , P21/c ,1,0,1.3980569851700002,0.707905427905
6593, VEVJIQ , ON=C1CN2CCC1CC2 , Pnma ,1,0,1.27942587939,0.6873608971070001
6594, UCAQIB , O=C1N(Cc2ccccn2)C(=O)c2ccc(c3cccc1c23)N(=O)=O , Pbca ,1,0,1.51777390182,0.7753091853820001
6595, YEGFOF , Cc1cccc2C3C(C4ON(OC4(C)c12)C3(N(=O)=O)N(=O)=O)N(=O)=O , C2/c ,1,0,1.7126050016699998,0.748884615385
6597, VACWIH , COc1ccc2cc(ccc2c1c1c(OC(=O)C(C)(C)C)ccc2ccccc12)N(=O)=O , P212121 ,0,0,1.2944832764399998,0.663101642948
6598, QEQKAY , COc1ccc2C3CCC4(C)C(CCC4(O)C4CC(=NO4)C(C)C)C3CCc2c1 , C2 ,0,0,1.20059150534,0.663227697744
6599, OCEHEL , O=N(=O)c1cc2OCOc2cc1C=C(C#N)C#N , P-1 ,1,1,1.5315849155,0.7071710007879999
6600, EFIHOQ , CC(C)(C)N([O])c1cc(cc(c1)C1=[N+]([O-])C(C)(C)C(C)(C)N1[O])N([O])C(C)(C)C , Pnma ,1,1,1.16717788944,0.625941250033
6602, WALWEO , O=C1N(Cc2ccccc2)C(=O)c2cc(c(NCc3ccccc3)c3cccc1c23)N(=O)=O , P-1 ,1,1,1.44421611935,0.721044091711
6604, JAQWUT , COC(=O)C1C(CC=C)C(=O)CC2(OCCO2)C1N(=O)=O , P21/n ,0,0,1.3886957334999999,0.682437662973
6605, HIZQEO , Cc1ccc(cc1)C1=NNc2cc(ccc12)N(=O)=O , Pbca ,1,0,1.44821589,0.7230925286509999
6606, WAPTAJ , OC(C1CC(=NO1)c1ccc(cc1)N(=O)=O)c1ccccc1 , P21/n ,0,0,1.44195663271,0.723894009217
6607, RUPFIS , CC1(C)CC(=O)CC(C)(C)N1N=O , P21/n ,0,0,1.1944391225,0.744297288409
6608, SAHCIQ , COC(=O)C1(C=CC(N1[O])(C(=O)OC)C(=O)OC)C(=O)OC , P21/c ,1,0,1.46634427368,0.696306758736
6609, FEPXUV , CCOC(=O)C1=CC(=Nc2c(C)cccc2C)C(C#N)(C#N)C21C(=O)N(C)c1ccc(cc21)N(=O)=O , P21/c ,1,1,1.33839674684,0.664427358393
6610, OCEKIS , CCOc1ccccc1NN=Nc1cccc(c1)N(=O)=O , P-1 ,1,1,1.3736746090600003,0.6912527798370001
6612, ZEDLUS , COC(=O)C=Cc1cc(cc2C=NN(C(=O)N(C(C)C)C(C)C)c12)N(=O)=O , P-1 ,1,1,1.3207163481200002,0.673048720873
6613, SIFDUH , CCC(=O)C(OC(=O)c1ccc(cc1)N(=O)=O)=CC , P21/n ,0,0,1.34223659463,0.68155273102
6614, WIQMAK , CCN1C(=Nc2c3ccccc3c3ccccc3c12)c1ccccc1N(=O)=O , P21/n ,0,0,1.3656022513400001,0.647907838983
6615, ULEFUM , CC1(CCOC(=O)c2ccc(cc2)N(=O)=O)CCC2OCCCC2(C)O1 , P21/c ,1,0,1.3440086409799998,0.705210084034
6616, PABHAB01 , CC1=Nc2c(cc(cc2N(=O)=O)N(=O)=O)N1c1c(cc(cc1N(=O)=O)N(=O)=O)N(=O)=O , P21/a ,0,0,1.71112479182,0.715047259849
6617, KUFYUH , COC(=O)C1=C(C)C2=CC3CCC(CC3C(N(=O)=O)C2(O)CC1)C(C)=C , P21 ,0,0,1.3435492222499998,0.715903183886
6618, KEJGIP , CCOC(=O)Nc1c(cc(cc1N(=O)=O)N(=O)=O)N(=O)=O , P21 ,0,0,1.60150164274,0.698920634921
6619, YEYVOP , COc1cccc(OC)c1C=NOC1(CCCCC1)COC(C)=O , Pca21 ,0,0,1.28308984659,0.6988214125059999
6620, EKEMOW , O1N=C2C=CC=CC2=C1c1ccccc1 , I2/c ,0,0,1.31711241222,0.711516651201
6621, BUDXOO , O=C(C=Cc1ccccc1)c1ccc(cc1)N(=O)=O , P21/c ,1,1,1.42462593644,0.735613843919
6622, SAZHEH , O=C1OC2(CC(N(O2)c2ccccc2)c2ccccc2)c2ccccc12 , P21/n ,0,0,1.3365701239399999,0.6857821078
6623, YUQFEX , OC(Nc1ncccn1)c1ccc(cc1N(=O)=O)N(=O)=O , P-1 ,1,1,1.5251440347299998,0.694446932378
6624, VASFUQ , O=C1CCC2(CCCCCCC1C2=O)N(=O)=O , P-1 ,1,1,1.4043594773399999,0.7418640913429999
6626, INODIY , OC(=O)c1ccccc1C(=O)Nc1ccccc1N(=O)=O , Pbca ,1,0,1.52347207803,0.725908667288
6627, PELHUL , NCCNc1cc(NCCN)c(cc1N(=O)=O)N(=O)=O , Pbca ,1,0,1.4686537272799998,0.7182333405529999
6628, NECYEC , COc1ccc(cc1)C(C(C)N(=O)=O)C1C(=O)N(C)C(=O)N(C)C1=O , P-1 ,1,1,1.39463491363,0.696871985669
6629, CIZRAF , CC1C2(ON(C)C(c3ccccc3)C12c1ccccc1)c1ccccc1 , P21/n ,0,0,1.20938840155,0.6714928264219999
6631, ZAYQIZ , Cc1cc(C)c(c(C)c1)C1=NOC2(C)CC(=Nc3ccccc3N12)c1ccccc1 , P212121 ,0,0,1.18765277316,0.652676461705
6632, SUZNAC , CCC1(ON=C(N1N1CCCC1C(C)(C)OC)c1ccccc1)c1ccccc1 , P212121 ,0,0,1.162673806,0.657326007326
6633, VAYYAW , CCCOC(=O)c1cc(ccc1O)N(=O)=O , P21/c ,1,0,1.3933706112,0.68316961553
6634, SANQAA , CN1C(=Nc2ccccc12)C=CN(=O)=O , P21/c ,1,0,1.3819763757299999,0.6964549309970001
6635, KAWTOR , OCc1cccc(c1)N(O)Cc1cccc(c1)N(=O)=O , P-1 ,1,1,1.40250096067,0.705762411348
6636, QAYBIC , COc1ccc(cc1)C1=NOC2C=CCC12 , P21/c ,1,0,1.3018693841,0.6829316420010001
6637, NITRBE01 , O=N(=O)c1ccccc1 , P21/c ,1,0,1.43170040039,0.719478487614
6638, PMOXMB , CC(OC(=O)c1cc(cc(c1)N(=O)=O)N(=O)=O)C1OC(C)(C)C1(C)C , Pbca ,1,0,1.33705240433,0.679359927879
6639, CEBLUS , CC(C)OC(=O)C1(Cc2ccc(cc2)N(=O)=O)N=C(OC1=NC1CCCCC1)c1ccccc1 , P21/c ,1,0,1.2290009091,0.647382787893
6640, NIRJEE02 , Cc1cccc(C=NO)c1O , P21/c ,1,0,1.5008710833399999,0.781353383459
6641, FIHNOA , COC(=O)C12CCCN1OC(C2)C(N)=O , P-1 ,1,0,1.39869529519,0.693516644175
6642, WANFOH , O=N(=O)c1cccc(c1)c1ccc2c3ccc(cc3C3(c2c1)c1cc(ccc1c1ccc(cc31)c1cccc(c1)N(=O)=O)c1cccc(c1)N(=O)=O)c1cccc(c1)N(=O)=O , I41/a ,1,1,1.43315344304,0.703261925852
6643, VAZRIX , CC1(C)C=C(C(=O)OCC#CC#CCOC(=O)C2=CC(C)(C)N([O])C2(C)C)C(C)(C)N1[O] , P21/n ,0,0,1.18500962027,0.637996289425
6645, PEZGOS , Cc1ccc(NC(=O)C2(CC(C)(C)CC2=O)N(O)c2ccccc2)cc1 , P21 ,0,1,1.22753538111,0.658943141254
6646, BERMAM , CNC=C(C(=O)OC)N(=O)=O , P21/a ,0,1,1.50840568709,0.655921743697
6647, MAVHAT , O=C1Nc2ccccc2C21C(C(C1CCCN21)N(=O)=O)c1ccccc1 , C2/c ,1,0,1.37218980756,0.6919590643269999
6648, YILTEU , O=N(=O)C1=C2[N-]ON=C2C2(OC3=CC=CC=CC3=[N+]2Cc2ccccc2)C(=C1)N(=O)=O , P21/n ,0,0,1.50795945996,0.699906462585
6649, AXUYIB , O=C1Nc2ccccc2C(=O)N2C=C(CC(C(=O)N3CCCC13)N(=O)=O)c1ccccc21 , P212121 ,0,0,1.43684497628,0.7030885780889999
6650, LUVPOI , CN(CN1N=NC(=N1)N(CN(C)N(=O)=O)N(=O)=O)N(=O)=O , P21 ,0,0,1.60624689595,0.6845947705869999
6651, HIHMAM , C=CC(=O)OCCCCCCOc1ccc(cc1)C(=O)Oc1ccc2[N]C(=Oc2c1)c1ccc(cc1)N(=O)=O , P-1 ,1,1,1.36696083782,0.693582102829
6652, GERFIU , CON=C(C)c1ccccc1C(C(=O)OC)C(=O)OC , P21/c ,1,0,1.2810603314,0.665333333333
6653, CARWIE , CN1CC(c2cccc(c2)N(=O)=O)C(C#N)(C(N)=O)C21C(=O)N(C)c1ccccc21 , P-1 ,1,1,1.33984078786,0.654623847755
6654, KIYBUP , CC(C)(C)Nc1c(c(NC(C)(C)C)c(c(NC(C)(C)C)c1N(=O)=O)N(=O)=O)N(=O)=O , P21/n ,0,1,1.33151179469,0.684459895558
6657, UCEWIJ , O=N(=O)c1ccc(C=Cc2ccc3ccc4cccc5ccc2c3c45)cc1 , Pna21 ,0,0,1.35491819496,0.700501472212
6658, EGIVUM , CCCN1C(=O)N(CCC)C2=C(NC(=C2O)c2ccc(cc2)N(=O)=O)C1=O , P21/n ,0,0,1.3685111859399999,0.678619032586
6659, GUDSED , CC1(C)OCC(O1)C(CN(=O)=O)C1CCOC1=O , P212121 ,0,0,1.40400680742,0.7141131815039999
6661, OVEQAJ , O=N(=O)c1ccc2c3ccc(cc3c3cc(ccc3c3ccc(cc3c2c1)N(=O)=O)N(=O)=O)N(=O)=O , P-1 ,1,1,1.26575258567,0.571127502634
6662, GICLAI , CC1(C)CC(=O)C2=C(C1)OC(=C(C#N)C2c1ccc(cc1)N(=O)=O)N , P21/n ,0,0,1.42479341661,0.712516733601
6664, DPBFOO10 , CC1(C)CC(=O)C2=C(C1)OC(=NO)C2c1ccccc1 , P21/n ,0,0,1.31180741309,0.706433839865
6665, PIXBUV , [O]N1C2CC3CC(C2)CC1C3 , Pbca ,1,0,1.27484503488,0.696352545266
6666, WIJCEX , CN(c1ccccc1)C(=CC=Cc1ccc(cc1)N(=O)=O)C#N , P21/n ,0,0,1.2831087996500001,0.684527913458
6667, HOPINA , [O]N1c2ccccc2C(=O)C1(c1ccccc1)c1ccccc1 , P-1 ,1,1,1.2975841561299999,0.684005167959
6668, OCHTET15 , O=N(=O)N1CN(CN(CN(C1)N(=O)=O)N(=O)=O)N(=O)=O , P21/n ,0,1,1.90361856553,0.774277524278
6672, DOTVIS , OCCC(C(C(=C)c1ccccc1)N(=O)=O)c1ccc(cc1)N(=O)=O , Pca21 ,0,0,1.32195273399,0.680030332752
6673, VEJXAM , CC(NC(=O)OC(C)(C)C)C(=O)N1CCCC1C(=O)Nc1cccc[n+]1[O-] , P212121 ,0,0,1.31049182548,0.68387972317
6674, BIHLOV , CC(=O)OC1CC(C)(C)N(O1)C(=O)c1c2ccccc2cc2ccccc12 , P21/n ,0,0,1.2887108141099999,0.67938520762
6675, CUDJAM , CC(=NO)C(=NO)N1CC1C(N)=O , P21/c ,1,0,1.4681398044,0.706495945369
6676, QUBQOV , CC1(C)C=C(CO)C(C)(C)N1[O] , P21 ,0,0,1.1974870159,0.6930128205130001
6677, OCAMAJ , O=N(=O)C1=CC2=NO[N+](=C2C=C1N(=O)=O)[O-] , Pbc21 ,0,0,1.87939730124,0.765729792595
6678, TEXXIF , CC(C)(C)OC(=O)C1=CC2=C(ON=C2c2ccccc12)c1ccccc1 , C2/c ,1,0,1.32592392023,0.700675872958
6679, LANTIF , CC(=NN=C(C)c1cccc(c1)N(=O)=O)c1cccc(c1)N(=O)=O , P21/c ,1,0,1.40670967038,0.699720893142
6680, EKAVUJ , CCC(C(OC(=O)c1cc(cc(c1)N(=O)=O)N(=O)=O)C(C)C(=O)N(C)OC)c1ccccc1 , P212121 ,0,0,1.33237208259,0.673474542026
6681, QABDAA , [O]N(CCOCc1ccccc1)=Cc1ccccc1 , P212121 ,0,0,1.22355104177,0.666914145361
6682, KEVYOZ , CC(N1OC21CCC(C)(CC2)c1ccccc1)c1ccccc1 , C2/c ,1,0,1.18741819075,0.6825397536390001
6683, GUTYUR , O=N(=O)c1cccc(C=NN=C2NN=Cc3ccccc23)c1 , P21/c ,1,0,1.50239147757,0.740354117804
6684, IVEXEO , O=N(=O)c1ccc2c3ccccc3C(=CC(c3ccccc3)(c3ccccc3)c3ccccc3)c2c1 , P-1 ,1,1,1.31959649843,0.706337524707
6686, PAVZET , COc1ccc(cc1)C(=O)NN=Cc1cccc(c1)N(=O)=O , P21 ,0,0,1.4140066583500002,0.6997037037039999
6687, OFIJOF , O=N(=O)c1ccccc1NCCN(CCNc1ccccc1N(=O)=O)CCNc1ccccc1N(=O)=O , Pbca ,1,0,1.4362885068900002,0.72164246824
6688, SATNEG , CC(=O)NCN(CN(CN(COC(C)=O)N(=O)=O)N(=O)=O)N(=O)=O , Pbca ,1,0,1.82402032718,0.734441924918
6689, RIMYUH , ONC(=O)CC(O)=NO , P21/c ,1,0,1.6714350957700002,0.757186498397
6691, PIJSUX , ON=C1CCC2CC1CC1=C2Nc2ccccc12 , P21/c ,1,0,1.3019103877299998,0.691412099431
6692, OZUHUO , O=N(=O)c1ccc(Nc2ccccc2)cc1Nc1ccccc1 , P21/c ,1,0,1.39513126165,0.7197070779160001
6694, PABPIR , CN(C)CCCNc1ccnc2c1cccc2N(=O)=O , Pbca ,1,0,1.2600561752,0.6760384594609999
6696, FAGWAO , COC(=O)C1=C(N(CN(C1)c1ccc(C)c(c1)N(=O)=O)C1=Cc2ccccc2OC1=O)C(=O)OC , P-1 ,1,1,1.27414724192,0.6134943869439999
6697, DODBOO , Oc1ccc2ccccc2c1C=NOCCON=Cc1c(O)ccc2ccccc12 , P21/c ,1,0,1.35619424646,0.69068287037
6698, UFEDOY , O=N(=O)C1=CC=C(N2CCCC2)C2=NON=C12 , P21/c ,1,0,1.52229509754,0.720902684061
6699, JUPRIV , CN(C)c1c(cc(cc1N(=O)=O)N(=O)=O)N(=O)=O , P21/a ,0,0,1.6079345022100002,0.7197491263760001
6700, PENCIU , Cc1ccc(cc1)N([O])=CC=Cc1c(O)ccc2ccccc12 , P21/a ,0,0,1.2380947491399998,0.661520522388
6701, LIVROY01 , ON=Cc1c(O)ccc2ccccc12 , P21/c ,1,0,1.37286399129,0.696087205967
6702, ZEKNIO , CCOC(=O)C(=NNc1ccc(cc1)N(=O)=O)c1ccccn1 , Pbca ,1,0,1.37754630527,0.683132094943
6703, WAMNAZ , COCC1C(C)C(=O)CC(C1N(=O)=O)c1ccccc1 , P212121 ,0,0,1.2390035958499999,0.6660298071149999
6704, ACALAR , O=C(Nc1ccccc1)c1ccc(cc1)N(=O)=O , P-1 ,1,1,1.43909218963,0.713435406945
6706, ISXZCB , CC1CCC(C)(C=NO)N2OC(C)(CC12)C=NO , P21/c ,1,0,1.24485794342,0.685936955765
6707, LUBBAL , O=C1CCN2OCC1C2Cc1ccccc1 , P21/a ,0,0,1.30219099798,0.703765597148
6708, UFEFAM , O=N(=O)C1=CC=C(N2CCCCCC2)C2=NON=C12 , P21/c ,1,0,1.44354999503,0.712490556535
6709, XUKQAX , CCCCCCCCCCCCOc1nc(ccc1NC(=O)c1ccc(c(OCC(=O)OC(C)(C)C)n1)N(=O)=O)C(=O)Nc1ccc(nc1OCC(=O)OC(C)(C)C)C(=O)OC , P-1 ,1,0,1.28616208662,0.675396966994
6710, NEDYIH , O=C(OCC(CCc1ccccc1)OC(=O)c1ccc(cc1)N(=O)=O)c1ccc(cc1)N(=O)=O , P212121 ,0,0,1.43803195997,0.7138459974879999
6711, PIMVIT , COC(=O)C1=C(N(C(=C(C#N)C1c1cccc(c1)N(=O)=O)N)c1ccc(cc1)C(C)C)C(=O)OC , P-1 ,1,1,1.27417569053,0.637605725439
6712, DOZHIL , CC(C)=CCCC1(C)OC2=C(C(=NN2c2ccccc2)C)C2(C)C1COc1ccc(cc21)N(=O)=O , P21/n ,0,0,1.28739482202,0.678968503987
6714, DARGIN , O=N(=O)c1cc(c(Oc2c(cccc2N(=O)=O)N(=O)=O)c(c1)N(=O)=O)N(=O)=O , P21/n ,0,0,1.8078888872599999,0.74559953321
6715, BICWEP , NC(=O)c1c(c(N)c(c(N)c1N(=O)=O)N(=O)=O)N(=O)=O , P21/n ,0,0,1.88732441569,0.7772011121410001
6716, IYAJAV , O=C1C2CCCN2C(N1c1ccc(cc1)N(=O)=O)c1ccc(cc1)N(=O)=O , C2 ,0,0,1.3958703981,0.668332128065
6717, TIPVAR , ON=C1NC(=NO)c2ccccc12 , Pnma ,1,0,1.4783859265500001,0.6998795014120001
6718, WEFBAM , Nc1ccc(cc1NCc1ccccc1)N(=O)=O , P21/c ,1,0,1.35957450141,0.696809559005
6719, CETRUQ04 , CC1(C)N([O])C(=[N+]([O-])C1(C)C)c1ccc2C(=O)c3ccccc3C(=O)c2c1 , Pbca ,1,0,1.37799184629,0.699976762477
6720, CUKCAM23 , OC(=O)c1cc(cc(c1)N(=O)=O)N(=O)=O , C2/c ,1,0,1.68500717218,0.7343963314309999
6721, LOGHEV , O=C1OCCC21NC(C(C2c1ccccc1)N(=O)=O)c1ccccc1 , P21/c ,1,0,1.36162405408,0.690590678616
6722, OHAYEB , OCC1ON=CC(O)C1O , P212121 ,0,1,1.54830190449,0.7388518518520001
6723, FULKUS , O=N(=O)c1cccc2C=NNc12 , P21/n ,0,0,1.5602760466499999,0.723167243715
6724, WOGDUR , CC(=O)C(C1C2CC(ON(=O)=O)C1C1CC=CC21)C(C)=O , P21/c ,1,0,1.3563850006600002,0.693452502554
6725, GUNKOQ , CC1CCC(C(C)C)C(C1)OC(=O)C1=CCC(C1C(C=Cc1ccccc1)=NNc1ccc(cc1N(=O)=O)N(=O)=O)c1ccccc1 , P21 ,0,1,1.23365539928,0.648070529145
6726, DEMROC , CC(=O)C1=C(O)CCCCCC(C1)N(=O)=O , P21/c ,1,0,1.37083794699,0.730211202938
6728, ZOMGAJ , CN1CCC2(CC1)CC(NC(O2)c1ccc(cc1)N(=O)=O)c1ccccc1 , P21/n ,0,0,1.2888953096100002,0.6813087597399999
6729, XEYJAP , NC(NNc1c(cc(cc1N(=O)=O)N(=O)=O)N(=O)=O)=NN(=O)=O , P21/n ,0,0,1.7627104387299999,0.7418518518520001
6730, SORYII , CCN(CC)c1ccc(c2c(ccc(N(CC)CC)c12)N(=O)=O)N(=O)=O , P21/n ,0,0,1.3308538222,0.7010533211509999
6731, APOREE , CCOC(=O)C(=C(N1CCCCC1)C(=O)c1ccc2ccccc2c1)N(=O)=O , P21/n ,0,1,1.29901376814,0.666064180619
6732, MUBGUM , None , P-1 ,1,1,1.37230265811,0.6930254930249999
6733, POQBON , CC(C)(C)OC(=O)N(N1C2CC=CC2OC1=O)c1ccc(cc1)N(=O)=O , P21/c ,1,1,1.38390039368,0.6874692658939999
6734, SEKCIX , CCOC(=O)C=CC1=CC(=C(N1c1ccc(OC)cc1)c1ccc(cc1)N(=O)=O)C=CC(=O)OCC , P-1 ,1,1,1.27364682397,0.649825897265
6735, LOBGOA01 , CCOC1CC23C=C(OC)C(=O)CC2C(Cc2ccc(OC)c(O1)c32)N(=O)=O , P-1 ,1,1,1.39607632699,0.704119525482
6736, ATOJEY01 , CC(=NO)C(C)=NNC(=O)c1ccccn1 , P21/c ,1,0,1.3753503873299997,0.70184242598
6737, FAQQUJ , COc1ccc(NC(=O)c2[n+]([O-])c3cc(OC)ccc3nc2Nc2ccccc2)cc1 , P-1 ,1,1,1.42501266507,0.7191358024690001
6738, KASBAH , O=N(=O)N(Cc1ccccc1)C#N , Cc ,0,0,1.38952687169,0.7001699622769999
6742, VUZLUY , COc1ccc2ccc(O)c(c2c1)C(=Nc1cccc(c1)N(=O)=O)c1ccccc1 , P-1 ,1,1,1.35127686734,0.689466248038
6744, SITPOC , Nc1c(cc(cc1N(=O)=O)N(=O)=O)N1C=NC=N1 , Pbcn ,1,0,1.6560428268599998,0.715184040765
6745, VIBKAT , CON1C(=C(OC(C)=O)C(=C1C=Cc1ccccc1)C(C)=O)C , P21/n ,0,0,1.24910345252,0.665604395604
6746, YIQZAA , COc1cccc(CN2CCNC2=NN(=O)=O)c1OC , P21/n ,0,0,1.3829421811899998,0.688861617578
6747, YOCQEO , COc1ccc(cc1)C1=CN2C3=C1CCCC3C(OC12CCCCC1)c1ccc(cc1)N(=O)=O , P-1 ,1,1,1.2870168155,0.669823600436
6748, TUNTUT , CON1c2cc(C#N)c(cc2C(=C1c1ccc(C)cc1)C=O)C#N , P-1 ,1,1,1.2968029971200001,0.678902680216
6749, CELBAW , O=N(=O)C1=NC=CN1 , P21/c ,1,1,1.7202240983400001,0.750429252782
6750, NAJYOO , CC1(C)C=C(C(=O)NOC(=O)C2=CC(C)(C)N([O])C2(C)C)C(C)(C)N1[O] , P21 ,0,0,1.19831024959,0.6424368848950001
6751, PUCRIP , CC1CN2C(C(C)O1)C1(Cc3cc(ccc23)N(=O)=O)C(=O)NC(=O)NC1=O , C2/c ,1,1,1.3167090973200002,0.6236852298800001
6752, UXULOP , CC(CC(=O)N(OC(C)(C)C)C(C)c1cccc2ccccc12)N(Cc1ccccc1)C(C)c1ccccc1 , P21 ,0,0,1.16147621002,0.6706660941170001
6754, PIQQOV , CN1[N]OC(=O)C1C=O , P21/n ,0,0,1.5800991443799999,0.724956360155
6756, XEQYUO , CC(C)(O)CCC1(O)C(=O)c2ccccc2c2ncc[n+]([O-])c12 , P21212 ,0,0,1.38444237614,0.7021428571430001
6758, ZZZLYS01 , Oc1cc(O)c(cc1N(=O)=O)N(=O)=O , P21/c ,1,0,1.7933494166900004,0.756689638046
6760, TUBFUR , COc1ccc(OC(CCC=C)C(OC(=O)c2cc(cc(c2)N(=O)=O)N(=O)=O)C(C)(C)C)cc1 , P21/c ,1,0,1.27172059799,0.593378928632
6761, QEYLAI , OCC1OC(C(O)C1O)N1C=CC(=C1)N(=O)=O , P212121 ,0,0,1.47289738633,0.6874878892730001
6762, RUGSAO , CON=C(C)c1ccc(NC(c2ccccc2)=C2C(=NN(C2=O)c2ccccc2)C)cc1 , P-1 ,1,1,1.28574712074,0.672072072072
6763, WEQJIM , CC(C)Oc1c2Cc3cccc4Cc5cc(cc(Cc6cccc(Cc1cc(c2)N(=O)=O)c6OCCOCCOCCOCCOCCOc34)c5OC(C)C)N(=O)=O , P-1 ,1,0,1.3227966749,0.6968069365530001
6764, JIFNER , ON1C(C(=O)N2CCCC2C1=O)c1ccccc1 , P212121 ,0,0,1.36159637739,0.6893493761139999
6765, TEJREG , COc1cc(CC=C)c(cc1OC(C)=O)N(=O)=O , P21/c ,1,1,1.3689051866600002,0.6840189873420001
6766, IHUBUK , OC1c2cc(ccc2C(=O)C21CCCCC2)N(=O)=O , P-1 ,1,1,1.3883766873199999,0.699595317242
6768, TAVVUJ , CC1CCC2C(CCC(=O)C(C)(CCC=C(C)C)CC12)COC(=O)c1cc(cc(c1)N(=O)=O)N(=O)=O , P21/c ,1,0,1.28193079941,0.6903318903319999
6769, POWDAI , O=N(=O)c1ccc(C[N+]([O-])=C(C=Cc2ccccc2)c2ccccc2)cc1 , P21/n ,0,0,1.31319350182,0.691153456688
6771, PICNEX , O=N(=O)c1cc(c(N=[N+]=[N-])c(c1)N(=O)=O)N(=O)=O , Pbca ,1,0,1.7740856893099999,0.720192720193
6772, SUQDEO , CC1(C)C(=O)N(c2ccccc2)C(=N)C1(C)N=Nc1ccc(cc1)N(=O)=O , P1 ,0,1,1.3773316757499998,0.708535980149
6773, HOFGEP , O=C1Nc2ccc(cc2C21C(C(C1CCCN21)N(=O)=O)c1ccccc1)N(=O)=O , P21/c ,1,0,1.45737616779,0.706158536585
6774, SUMGAJ , CC1(C)OC2C(O1)C13CCC(OC(=O)c4cc(cc(c4)N(=O)=O)N(=O)=O)C1C(C)(C)C2(C)C=C3 , P21 ,0,0,1.31889492412,0.664396848907
6777, FESNEW15 , COc1ccc(cc1N(=O)=O)N(=O)=O , P21/n ,0,0,1.59163972401,0.722946859903
6778, NTROMA , CN(=O)=O , P212121 ,0,0,1.4012925335100002,0.636863425926
6779, WEXTUR , COC(=O)N(C(ON1C(C)(C)CCCC1(C)C)c1ccccc1)c1ccccc1CON1C(C)(C)CCCC1(C)C , P21/c ,1,0,1.16565356845,0.665599073895
6780, LIXKAE , O=C(OC1C=CCC21CC=CC2=O)c1ccc(cc1)N(=O)=O , P-1 ,1,1,1.4517596514200002,0.725518925519