ID,name,smiles,space_group,inversion_symmetry,beta_packing,density,packing_coefficient
7733, KABQUZ , CC1(C)N([O])C(=[N+]([O-])C1(C)C)c1cc(cc(c1)C(O)=O)C(O)=O , P41212 ,0,0,1.40054940527,0.684575363736
7735, KOVGOR , CCCNC(NCCC)=C(N(=O)=O)N(=O)=O , P-1 ,1,0,1.44550971086,0.704459005129
7737, VOPVUR , O=N(=O)C1C(C(C1c1ccccc1)N(=O)=O)c1ccccc1 , P21/n ,0,0,1.43322325473,0.726298504883
7738, SINHON , O=N(=O)c1ccc(C=Cc2ccc(cc2)N(=O)=O)cc1 , P21/c ,1,0,1.4263825691799998,0.695434025148
7739, VIMMOU , CN1C(=CC(=C(C(C)=NO)C1=O)O)C , P21/c ,1,1,1.38970649929,0.6928902286599999
7741, PEYGOR , Oc1ccc2ccccc2c1NOCC(=O)c1ccccc1 , P21/c ,1,0,1.42002877835,0.7287360957089999
7742, IVEREH , CC[NH+]=Cc1cc(ccc1[O-])N(=O)=O , P-1 ,1,1,1.41051182312,0.703913043478
7743, EROYIU , O=CC1=CC=CN1Cc1ccccc1N(=O)=O , P-1 ,1,1,1.4372486260100001,0.714066650237
7744, NODHIZ , C1C2CC3CC1CC(C2)(C3)C1=NON=C1N=NC1=NON=C1C12CC3CC(CC(C3)C1)C2 , C2/c ,1,1,1.39559552801,0.7209651372660001
7745, PERSEN , O=N(=O)C1=C(C(=NN1)C1=C(C(=NN1C(N(=O)=O)(N(=O)=O)N(=O)=O)N(=O)=O)N(=O)=O)N(=O)=O , C2/c ,1,0,1.8912358845700001,0.7326435690559999
7746, PEMGAQ , CN(C)c1ccc(cc1)C=NOC(=O)C=Cc1ccccc1 , C2/c ,1,1,1.2425664272399999,0.674985970819
7747, DUGXOS , CC(=O)OCC1OC(Nc2cc(C)c(C)cc2N(=O)=O)C2OC(C)(C)OC12 , P21 ,0,0,1.30643576163,0.652181540809
7748, ODASIY , CN1O[N+](=C(C1=O)c1ccccc1)[O-] , P21/n ,0,0,1.495894015,0.7273617491009999
7749, JAGXEX , CC1C(CN(=O)=O)C2CCC(C2)C1=O , P21/n ,0,0,1.32929636275,0.712583196304
7750, WUTXAL , COC(=O)c1ccc(cc1N(=O)=O)C(=O)c1cc2c(cc1C)C(C)(C)CCC2(C)C , Pbca ,1,0,1.2907390008,0.697652231624
7751, IWAVUZ , O=N(=O)C1=CC2=[N+]([O-])C3(CCCCC3)[N+](=C2C=C1)[O-] , P21/c ,1,0,1.51101393284,0.741950113379
7753, PIDFOX01 , None , P21/n ,0,0,1.30728074066,0.6824098230490001
7754, ELUDEV , O=N(=O)NC1=NON=C1N=NC1=NON=C1NN(=O)=O , P21/c ,1,0,1.99607882846,0.768148291925
7756, RENFUN , [O]N1C2(CCCCC2)CC(=O)CC21CCCCC2 , P21/c ,1,0,1.23399200317,0.7050940438869999
7757, YORDUE01 , CC1(C)N([O])C(=[N+]([O-])C1(C)C)c1cccc(n1)C1=[N+]([O-])C(C)(C)C(C)(C)N1=O , P21/c ,1,0,1.31565615853,0.689407442151
7758, MUBLUR , CC(=CC1=CC=CO1)N(=O)=O , P21/n ,0,1,1.4422942263999998,0.7253943758570001
7760, WINYUN , CC(C1CC(C)(C)CN1O)c1ccccc1 , P21/c ,1,0,1.09249840584,0.647788082294
7763, RIWPIW , ON=C1C=CC(=O)c2ncccc12 , P21/n ,0,0,1.4943193701800002,0.72410130719
7765, ZOGQAN , O=N(=O)c1ccc(Cc2cccc(n2)c2ccccn2)c(c1)N(=O)=O , P21/c ,1,0,1.46015271268,0.707558708415
7766, ROXSUU , CN1CCN(CC1)c1ccc(c(NCc2ccccc2)c1)N(=O)=O , P21/c ,1,0,1.31217360117,0.697724444444
7768, QULMAL , COC(=O)C1CCCC2N(O1)C(=O)C(C)NC2=O , P212121 ,0,0,1.3551044758700002,0.6757484276729999
7770, VABZIH , COC1OCCC2ON3C(=NOC3(C12)c1ccccc1)c1ccccc1 , P21/c ,1,0,1.3580810890000001,0.715942028986
7771, XUVCEY , CC1(C)N(O)C(=O)C(=CC1=O)c1ccccc1 , P-1 ,1,1,1.3163766372399999,0.684269947697
7772, TIXPIZ , CC1=NN(C(=C1)N)C(=NO)c1ccccc1 , Pc ,0,0,1.2994143207,0.6739484795039999
7773, POKPOU , COC(=O)N1C2CN3OC(OC)(C(COC(N)=O)c4c(OC)cc(cc34)C(=O)OC)C12 , P21/c ,1,0,1.41748668717,0.694968589012
7774, TEJQII , COC(=O)C1=C(C)NC2=C(C1c1cccc(c1)N(=O)=O)C(=O)CC(C)(C)C2 , Pbca ,1,0,1.37162456086,0.706317204301
7775, GILRUQ , COc1cc(OC)c(C=C(C)N(=O)=O)c(OC)c1 , Pca21 ,0,0,1.36361402553,0.704638138556
7776, HALWUO , CC1(C)ON(C(c2ccccc2)C1=C1C(C)(C)C1(C)C)c1ccccc1 , P21/c ,1,1,1.13725462536,0.654437456324
7777, PIDRIF , CCCCCCC1(CCCCCC)c2ccccc2c2c(C=Cc3ccc(cc3)N(=O)=O)ccc(C=Cc3ccc(cc3)N(=O)=O)c12 , P-1 ,1,0,1.36093780152,0.68202786559
7778, YILNIS , O=N(=O)c1cnc(nc1)N=[N+]=[N-] , P21/n ,0,0,1.6995068557100002,0.732025862069
7779, TAJKOE , None , C2/c ,1,1,1.19823695972,0.670597075314
7780, CUKCAM01 , OC(=O)c1cc(cc(c1)N(=O)=O)N(=O)=O , P21/c ,1,0,1.67259791809,0.7188634713140001
7782, TUFFAB , O=N(=O)c1cccc2CCCc12 , P-1 ,1,1,1.33685649891,0.691027762456
7784, AZPYRO , [O-][n+]1ccc(cc1)N=Nc1cc[n+]([O-])cc1 , P21/c ,1,0,1.50589566852,0.6941332170300001
7786, HUDCAL , COc1cc(C=O)ccc1OCCCN1C=C(N=C1C)N(=O)=O , P21/n ,0,0,1.3698530192899998,0.690538194444
7787, FEPJIT , O=N(=O)c1cccc(COCc2cccc(c2)N(=O)=O)c1 , P-1 ,1,1,1.43680564886,0.699732167474
7788, LUVPAU , CN1N=NC(=N1)N(CN(C)N(=O)=O)N(=O)=O , P21/c ,1,1,1.59219659589,0.69701070051
7789, TODCEW , O=N(=O)c1ccc(C#N)c(c1)C#N , Pbca ,1,0,1.4655592184900001,0.705386325329
7790, YOVJUP01 , Cc1ccnc(N)c1N(=O)=O , P21/n ,0,0,1.55453795713,0.7565741417090001
7791, MUCGUN , O=C(NNC(=O)c1ccc(cc1)N(=O)=O)c1ccc(cc1)N(=O)=O , P21/n ,0,0,1.5732799921399998,0.7253777777779999
7792, ISOPAH , CN1OCCC2=CN(C)C(=O)N=C12 , P21/n ,0,0,1.36032077439,0.7225826382449999
7794, WEHPII , COC(=O)C1=CON2CCC3=C(N(C)c4ccccc34)C12C , P-1 ,1,1,1.32155083908,0.684435217894
7795, NOZZAD , COC(=O)C(C(C1COC(C)(C)O1)C(C)(C)N(=O)=O)C(=O)OC , P212121 ,0,0,1.33171555831,0.683212095279
7796, NUQFIP , O=C(NNC(=O)c1ccccc1)Nc1ccccc1N(=O)=O , Pc ,0,0,1.43939886164,0.696981424149
7797, OSIGII , O=N(=O)c1ccccc1C=CC=Cc1ccccc1 , Pca21 ,0,0,1.2607780860100002,0.679962063027
7798, FEFLEK , CCC1=CN2C=C(C=C2C=C1)C1=[N+]([N-]OC1=O)c1ccccc1 , P21/c ,1,0,1.31838568107,0.6768435085050001
7799, OJUNUC , CN(C)N=CC(=NN1CCCC1)c1ccc(cc1)N(=O)=O , P-1 ,1,1,1.25701148825,0.663309803922
7800, SABDAC , COc1ccc(Oc2ncccc2N(=O)=O)cc1 , Pbca ,1,1,1.39251521372,0.676870412429
7802, VIFTUA , Cc1ccc(cc1)N=N(=O)c1ccc(C)cc1 , P21/n ,0,0,1.26715512219,0.6967480300810001
7803, AXUHAE , CCN(CCN1C(=O)C(=NNc2ccc(OC)cc2N(=O)=O)C(=C(C#N)C1=O)C)C(C)=O , Pna21 ,0,0,1.4232303335299998,0.7039209164820001
7804, NEHYEG , CCOC(=O)C1=C(C(=O)c2ccccc2)C(=NO1)C(=O)OCC , P-1 ,1,1,1.28860361886,0.642659583208
7805, EXICUJ , CC1(C)N=C(N([O])C1(C)C)C(N)=O , Cc ,0,0,1.1937016598299999,0.66958698373
7806, VEQJAD , Cc1ccc(cc1)C1=C(c2ccc(cc2)N(=O)=O)C(=C(C)C=O)c2cc(C)ccc12 , P-1 ,1,1,1.25915508579,0.661281051632
7807, YAWXEZ , OC12CC(C3COC1O3)C(C1C3COC(O3)C(=O)C21)N(=O)=O , P21 ,0,0,1.58293608016,0.716156126482
7808, LESLIG , COC(=O)c1cc(NC(=O)c2ccc(cc2)N(=O)=O)c(O)cc1O , C2/c ,1,0,1.50899499545,0.70479676315
7809, RABPIP , COC(=O)C(NC(=O)c1ccccc1)=CN(=O)=O , C2/c ,1,1,1.4039170813,0.684820230275
7810, MNPYDO16 , Cc1cn([O])ccc1N(=O)=O , P212121 ,0,0,1.51462697012,0.720407131697
7811, BERCUZ , COc1ccc(OC)c2C(=CN(C)C(=O)c12)N(=O)=O , P21/c ,1,1,1.55240681759,0.750153231179
7812, BILDOR01 , O=C(Nc1ccccc1N(=O)=O)C1=CC(=O)c2ccccc2O1 , P21/c ,1,0,1.57419517536,0.7477325853200001
7814, QOJMIN , COC1(C)OC(C#Cc2ccccc2)C(C(C1C(C)=O)c1ccccc1)N(=O)=O , P212121 ,0,0,1.27716102346,0.671823754789
7815, ENULEF , C1C2ON(C1C=CC=C2)c1ccccc1 , Pbca ,1,0,1.28028298316,0.694321206744
7816, GERPOJ , OCCNc1cc(NCCO)c(cc1N(=O)=O)N(=O)=O , Pbca ,1,0,1.59905405946,0.7459517859
7817, VIHKOO , CC(C)C1CCC(C)C2(ON(C3C2N(OC23C(C)CCC(C(C)C)C2=O)c2ccccc2)c2ccccc2)C1=O , P212121 ,0,0,1.23150127204,0.680433862434
7818, XOKKOY , COc1ccc(C=Nc2cccc(c2)N(=O)=O)c(O)c1 , P-1 ,1,1,1.4472714306099999,0.711388013735
7819, DAHKIH , CCC(O)C(C)C=C(C)C1C2C(C)(C=C1C)C2(C)C(=O)N(C)OC , P21 ,0,0,1.1094778312,0.644411764706
7820, TAPLUU , Cc1cccc(OCC2=C(c3ccccc3)C(=NO2)c2ccc(cc2)N(=O)=O)c1 , P212121 ,0,0,1.3198563385,0.672793164885
7822, NMBYAN01 , Cc1ccc(cc1)N=Cc1ccc(cc1)N(=O)=O , Pc ,0,0,1.3941430575100002,0.7611773003200001
7823, VUZHII , Cc1ccccc1C(=O)NN=Cc1ccc(cc1)N(=O)=O , P21/n ,0,1,1.3509373719799997,0.6720168742470001
7824, REGRUR , CN1CC2CC(CC(N(=O)=O)C32OCCO3)(C1)N(=O)=O , P212121 ,0,0,1.5189637924000001,0.730534105534
7825, PATRAG , COc1ccc(cc1)C1=NOC(CC#N)C1(C)C , P21/n ,0,1,1.23873489191,0.67030021048
7827, CACNIE , COC(=O)C1(CC2CC1C=C2)OC(=O)c1ccc(cc1)N(=O)=O , C2/c ,1,0,1.4081563673299997,0.688983134921
7828, OCALEL , CC(=NNC(=O)c1ccccc1N(=O)=O)c1ccccn1 , P21/n ,0,0,1.33593613394,0.659038383838
7830, LAQDIS , CCOC(=O)C(=NO)C(C)=NN=C(C)C(=NO)C(=O)OCC , P21/c ,1,0,1.32737050483,0.663722943723
7831, FEDXUI , CC(C)OC(=N)C1=N([O])C(C)(C)C(C)(C)N1=O , C2/c ,1,0,1.29895072334,0.697944896116
7832, ASOVOU , CC(=O)C(CN1CCN(CC1)CC(=Cc1ccccc1N(=O)=O)C(C)=O)=Cc1ccccc1N(=O)=O , P21/n ,0,0,1.3014088858700001,0.677456211788
7833, BEKDAW , CCOC(=O)C1(C#N)C(c2ccc(cc2)N(=O)=O)C1(C#N)C#N , P21/c ,1,0,1.40945871546,0.69371861268
7835, HUHTAF , O=C1OC(=Nc2ccccc12)c1ccccc1N(=O)=O , P21/c ,1,0,1.5059782454799997,0.71016999142
7836, ATYRAN , CC(=O)NC(Cc1ccc(O)cc1)C(=O)Nc1ccc(cc1)N(=O)=O , P212121 ,0,0,1.39367580544,0.704571026723
7837, NIMVAG , NC(=NO)c1cccc(n1)C(N)=NO , P21 ,0,0,1.5177833290399998,0.721647869674
7838, KUYWAD , Cc1ccc(cc1)C=Nc1ccc(cc1)C(C)=NO , P21/n ,0,0,1.22926615119,0.670380312684
7840, QUFKAF , O=C1CC(C(C2CCCCC12)N(=O)=O)c1ccccc1 , P21/c ,1,0,1.24809350142,0.660781954887
7842, MOWBUX , CC(=O)CC1=NN(N=N1)C1=NOC(=C1)C , P1 ,0,0,1.4233922513100001,0.709295352324
7843, BAMQAJ01 , CC1(C)N([O])C(=N([O])C1(C)C)C#CC#CC1=N([O])C(C)(C)C(C)(C)N1[O] , P21/n ,0,0,1.29262051616,0.7067954292649999
7844, LOKZAN , COC(=O)c1ccc(NC(=O)c2ccc(NC(=O)c3ccc(c(OCC(=O)OC(C)(C)C)c3)N(=O)=O)c(OCC(=O)OC(C)(C)C)n2)c(OCC(=O)OC(C)(C)C)n1 , P-1 ,1,1,1.3569116684399998,0.6765347769399999
7845, EMOPIG , COc1ccc(c(C=O)c1OCc1ccccc1)N(=O)=O , P-1 ,1,1,1.43727917534,0.717186398872
7846, BAJCIY01 , Cc1cc(ccc1N)N(=O)=O , Ia ,0,1,1.3908754697699999,0.705097162724
7848, FABSUY , CC1C2OC(C)(C)OC2C(ON1Cc1ccccc1)N(O)Cc1ccccc1 , P212121 ,0,0,1.21526515786,0.652105596279
7849, FULKUS01 , O=N(=O)c1cccc2C=NNc12 , P21/n ,0,0,1.5596111839700002,0.727618760887
7850, DUWZEC , O=N(=O)OC(ON(=O)=O)C(ON(=O)=O)ON(=O)=O , P21/c ,1,0,1.9910840054900003,0.741041793673
7851, BIZHEX , CC1=CCC(C)(C)C=CCC(C)(ON(=O)=O)C(CC1)N(=O)=O , Pc21n ,0,0,1.25100543469,0.6772799849719999
7852, LEVSEK , [O]N(c1ccccc1)=C1C(=Nc2ccccc12)Nc1ccccc1 , P21/n ,0,0,1.30534194185,0.682505978001
7853, MODPOL , Cc1ccc(cc1N(=O)=O)C1=NN=NN1 , P21/c ,1,0,1.52278595566,0.7150545454549999
7854, WINCON , O=CCCC(C#N)(c1cccc2ccccc12)N(=O)=O , P21/c ,1,0,1.38602987927,0.7531220848000001
7855, EBURUR , CC1(C)C(O)N(C(=O)c2ccccc2N(=O)=O)c2ccccc12 , P21/c ,1,0,1.354676119,0.681650766816
7856, ZOFTAP , O=C(NCC1=CC=CO1)C(=CC1=CC=C(O1)N(=O)=O)C#N , P21/c ,1,1,1.44473495627,0.6742232076870001
7857, ZOKKIV , CC1CCC(C(C1)OC(=O)C1(CCCC1=NO)C1=CC=C(C)O1)C(C)(C)c1ccccc1 , C2 ,0,0,1.16222576904,0.640915289369
7858, RALSAB , CC1(C)CCCC(C)(C)N1OC(C(=O)c1ccccc1)C(=O)c1ccccc1 , P21/c ,1,0,1.1896844713099999,0.667795252658
7860, GURGOP , Oc1ccccc1C(=O)C1=CN2N=C(C=C2N=C1)c1ccc(cc1)N(=O)=O , P212121 ,0,0,1.56573781389,0.75385365353
7861, IQEXOR , CC1(C)N([O])C(=N([O])C1(C)C)c1ccc2N(c3ccccc3)c3ccccc3N(c3ccccc3)c2c1 , C2/c ,1,0,1.27347507915,0.670923596002
7862, IXUQID01 , CCOC1=Nc2cccc(C(=O)OCC3=C(C)OC(=O)O3)c2N1Cc1ccc(cc1)c1ccccc1C1=NOC(=O)N1 , C2/c ,1,0,1.2749417543700001,0.64107347876
7863, ZIPREX , CCOC(=O)OC1=CN(N=C1C(=O)OCC)c1ccc(cc1)N(=O)=O , P-1 ,1,1,1.4733500234,0.70471979544
7864, VAPKIG01 , Cc1ccc(NC(=O)OCC#CC#CCOc2ccc(cc2)N(=O)=O)cc1 , C2/c ,1,1,1.37086257485,0.652260323156
7866, TEBXEE , COC(=O)CN(c1ccccc1)C1=NC(C)(C)N([O])C1(C)C , P21/c ,1,0,1.1821667933700002,0.64082761251
7867, TERKOR , CC(=O)C1=C(C(CCC1)=NO)c1ccc(C)cc1 , P21/a ,0,0,1.17720287935,0.638407658696
7869, SAFMAQ , O=N(=O)c1cc2N=NNc2c(c1)N(=O)=O , Pna21 ,0,0,1.64483425799,0.6870026276279999
7870, LETNAZ , CC1=C(C(=NN1)C)N(=O)=O , P3121 ,0,0,1.3302141273299999,0.5923888806300001
7871, JAJSOF , Cc1cccc2ncc(nc12)c1ccccc1N(=O)=O , P21/n ,0,0,1.4046794894299999,0.711161387632
7872, RUCRIR , CCOC(=O)C1=C2C3CCC(C=C3)C2=C(N1)N(=O)=O , P-1 ,1,1,1.38328458882,0.686493738819
7873, TOSCAF , CC(=O)OC1CC2ON(C(C)=O)C3(CCC4C(CCC5(C)C(CCC45)OC(C)=O)C23)C1 , P21 ,0,0,1.23677787275,0.682115737104
7874, ZZZTQC01 , O1N=C(c2ccccc2)C(=N1)c1ccccc1 , P21/c ,1,0,1.26719636924,0.6724575827399999
7875, TIJJED , CN(C)CCN(Cc1cc(cc(c1O)C(C)(C)C)N(=O)=O)Cc1cc(cc(c1O)C(C)(C)C)N(=O)=O , P21/c ,1,0,1.18636352939,0.6363646172190001
7877, KUKLIM , CC(C)(C)OC1C2CC(C1C=C2)C(=O)c1cc(ccc1O)N(=O)=O , P-1 ,1,1,1.3027421836,0.66872015197
7878, HOHPOK , COC(=O)c1cnc(c2ccc(OC)cc2)c(C2=CC(=NO2)C)c1C(=O)OC , P21/c ,1,0,1.4047756425600002,0.702302915301
7879, INIDEQ , OC1(CC(=NO1)c1ccccc1)C1=CC=CO1 , P21/n ,0,0,1.3368806814,0.666987951807
7880, GAWNAT , CC1ON=C(C)C1C(=O)OC1(CC2CCC1(C)C2(C)C)c1cccc2ccccc12 , P32 ,0,0,1.1885546712700001,0.665334035558
7881, NUQRUN , Oc1ccc2ccccc2c1C=NNC(=O)c1ccccc1N(=O)=O , P21/n ,0,0,1.4341635608399999,0.6967826243690001
7882, XILGUX , CCC1=C(C(=O)OC)C(=NN1Nc1ccc(cc1N(=O)=O)N(=O)=O)c1ccccc1 , P21/n ,0,0,1.45479921039,0.706101963111
7883, QIXTEW , COC(=O)C(C)Oc1cccc(c1)C1=[N+]([O-])C(C)(C)C(C)(C)N1[O] , P212121 ,0,0,1.26550416075,0.6712994950839999
7884, VOXJEX , CC(O)C1CCC2C3CCC4C5=NON=C5CCC4(C)C3CCC12C , P212121 ,0,0,1.21030264905,0.703449628415
7885, GUHBER , OC1=C(C(CN(=O)=O)c2ccccc2N(=O)=O)C(=O)c2ccccc2C1=O , P21/n ,0,0,1.53645093162,0.721786475784
7887, ORIGUT , Oc1ccc(cc1C=Nc1ccc(cc1)C(c1ccccc1)=C(c1ccccc1)c1ccccc1)N(=O)=O , P-1 ,1,1,1.2633219331999999,0.6518184676659999
7890, NAQNOJ , CCC(C)C(OCc1ccccc1)C1C([NH2+]C(C1N(=O)=O)c1ccccc1)C(=O)NCC(=O)[O-] , P21 ,0,0,1.2671463602200002,0.660992552725
7891, HOTHOP , CC1Cc2ccccc2C2C3ON=C(C3C(=O)N12)c1ccc(C)cc1 , P21/c ,1,0,1.2833030999600001,0.685301622016
7892, YANLAB , O=C(C#Cc1ccccc1)c1ccc(cc1)N(=O)=O , P21 ,0,0,1.4042037911,0.7169515669519999
7893, VELTIQ , O=C(OC(=O)c1ccccc1N(=O)=O)c1ccccc1N(=O)=O , P21/c ,1,0,1.5312382194499998,0.7011353615520001
7894, WOFDUQ , CC1(C)CCCC(C)(C)N1OC(C(=O)ON1C(C)(C)CCCC1(C)C)c1cccc2ccccc12 , Pn ,0,0,1.14239627904,0.657611062718
7895, RERXES , CC1(C)N=C(c2ccc3ccc4cccc5ccc2c3c45)N(=O)C1(C)C , P21/n ,0,0,1.25711171876,0.67027367847
7896, ESUHEH , CCOc1nc(nc2N(N=Cc12)c1ccccc1)c1ccccc1N(=O)=O , P-1 ,1,1,1.42198652968,0.703646353646
7897, AWUYEX , COC1N(Nc2ccc(cc2N(=O)=O)N(=O)=O)C(OC)c2ccccc12 , P-1 ,1,1,1.44663713931,0.68455655905
7898, MEGDOS , NC(=O)c1cccc[n+]1[O-] , Pbca ,1,0,1.47424421081,0.711535311535
7899, VAXZUQ , C=CCCC1C2CC(=O)OC2C=CC1OC(=O)c1ccc(cc1)N(=O)=O , P212121 ,0,0,1.32492380257,0.668290607382
7900, KUTGAI , CCOC(=O)c1ccc(NCCO)c(c1)N(=O)=O , P21/c ,1,0,1.4911224948,0.739368998628
7901, FAPHUA , CCCCON=C(Cc1ccccc1)C(=O)OC1C2C(CC(=C1C(C)CCCOC(C)=O)C)OC(=O)C2=C , P1 ,0,1,1.14941680351,0.630108695652
7902, DUNCEW , COC(=O)C1(O)C2CC3N4OC2(CC4CC23c3ccccc3N=C12)C(C)=O , P-1 ,1,1,1.41543976393,0.693995128916
7903, NEDCAA , O=N(=O)c1ccc(NC=Nc2ccc(cc2)N(=O)=O)cc1 , P-1 ,1,1,1.4633529451499998,0.6934665451559999
7905, GOFNIA , Cc1cc2nc(C)c(nc2cc1C)C1=Nc2ccccc2N1C(=O)c1ccccc1N(=O)=O , P21/n ,0,0,1.4195389653000001,0.713490801726
7906, VERXIC , OC(=O)CN(Cc1ccc(cc1)N(=O)=O)C(=O)OCC1c2ccccc2c2ccccc12 , Pbca ,1,0,1.4042603765200001,0.704631379962
7907, GUFPAY , CC1(C)CC(CC(C)(C)N1[O])N=Cc1cccnc1 , P21/c ,1,0,1.1535517153000001,0.6488877160059999
7908, PEVNOU , CN1OC2CC3OC(C)(C)OC3C(O)C1C2 , P21 ,0,0,1.31537076661,0.680034791918
7910, TEMWUD , Oc1cccc(O)c1N(=O)=O , P-1 ,1,1,1.6060196160299998,0.6844310373720001
7912, TEVDEG01 , O=N(=O)C(CNC1=NON=C1C1=NO[N+](=C1C1=NON=C1NCC(N(=O)=O)(N(=O)=O)N(=O)=O)[O-])(N(=O)=O)N(=O)=O , P21/c ,1,0,1.8438478404599998,0.7458318800139999
7913, LAWVIR , O=N(=O)c1ccc(CN2C=C(CN3C=CN=C3)N=N2)cc1 , Pna21 ,0,0,1.44262577627,0.716301979729
7914, CUKDOC , O=N(=O)c1cccc(NCNc2cccc(c2)N(=O)=O)c1 , C2/c ,1,1,1.50670717165,0.72447428307
7915, QOTGOV02 , O=N(=O)c1ccc(NC23CC4CC(CC(C4)C2)C3)nc1 , Pna21 ,0,0,1.30995358661,0.674104683196
7916, MESHUO , Nc1ccccc1C1=NOC(C1)C#N , P212121 ,0,0,1.35828047941,0.70159216688
7917, NPBDXY01 , OC1COC(Oc2ccc(cc2)N(=O)=O)C(O)C1O , P212121 ,0,0,1.5653135415600001,0.6759789359980001
7918, GIHSUL , CCOC(=O)N1C2C=C(C)C(ON2C(=O)c2ccccc2)C2C(C)C(=O)N12 , P21/n ,0,1,1.34227843914,0.687329580988
7919, XETKAK , O=N(=O)c1ccc(CN2C=CN=N2)cc1N(=O)=O , P21/c ,1,0,1.54010048299,0.697994987469
7921, XIQKEQ , CON1C(=O)C2(CC(C3COC2C(=O)C3)N(=O)=O)c2ccccc12 , P21 ,0,0,1.49911952095,0.724081523472
7922, XASROB , O=C(CON(=O)=O)CON(=O)=O , Fdd2 ,0,0,1.78476455977,0.7438342269239999
7923, FUWJUD , CCOC(=O)C1C(ON(C1c1ccccc1)c1ccccc1)C1(CC1)C1CC1 , P21/c ,1,0,1.22813977676,0.682687716596
7925, GAFVER , CC1(CCC1=C)C(O)c1ccc(cc1)N(=O)=O , C2/c ,1,0,1.29438128928,0.6977629513339999
7926, ZUHXAB01 , CC(CC(C)=NNc1ccc(cc1N(=O)=O)N(=O)=O)=NNc1ccc(cc1N(=O)=O)N(=O)=O , Pn ,0,0,1.4798953788,0.6886788226330001
7927, REGMAS , COC1CC2C3CCC(C(C)C(O)C4ON=C(C)C4C)C3(C)CCC2C2(C)CCC3CC123 , C2 ,0,0,1.15317461074,0.661837949194
7928, WAKWEK , CN1c2ccc(cc2C(=C1c1ccccc1)N(=O)=O)N(=O)=O , P21/n ,0,0,1.4418623881400001,0.703797051314
7929, NORJIO , COC(=O)C1ON(C)C(C1C(=O)OC)c1ccc(C)cc1 , Ccc2 ,0,0,1.2845133855600002,0.664515282697
7930, IZEGAV , CC(C)(C)c1ccc(NC(=NO)C(=O)c2ccccc2)cc1 , P-1 ,1,1,1.23644669167,0.673726512436
7932, QAYFUS , CC1(C)OC2C(O)CC(NOCc3ccccc3)C2O1 , C2 ,0,0,1.59078785303,0.7170993181630001
7933, TINXIY , COC(=O)C1=CC(=O)N2CCN(C)C2=C1N(=O)=O , P21/n ,0,0,1.47894653919,0.6991552956470001
7934, HITMUS , CC(CN(=O)=O)=C(C)CN(=O)=O , P21/c ,1,0,1.3532134346899998,0.677433247201
7937, ZIXWIO , CN1C(=O)Nc2ccc(cc12)N(=O)=O , I41/a ,1,0,1.5665714004499998,0.7257560262970001
7938, AHOVOI , CC(C=C)C(OC(=O)c1ccc(cc1)N(=O)=O)C(C)C1OC(C)(C)N(C1C)C(C)=O , P21/c ,1,1,1.2336810464899999,0.662213845477
7939, QAYVIY , O=C(Nc1ccccc1)Nc1ccccc1N(=O)=O , P21/c ,1,0,1.4534108580200003,0.7189542483660001
7940, KUGXOZ , O=C1CN(CC2N1CCc1ccccc21)C(=O)c1ccc(cc1)N(=O)=O , C2/c ,1,1,1.39666253379,0.691066126856
7941, VADGUF , O=C(c1ccccc1)c1[n+]([O-])cnc2ccccc12 , C2/c ,1,0,1.3499229646700002,0.6762722462720001
7942, GEQVAZ , OC(=O)c1cc(ccc1C(=O)c1ccccc1)N(=O)=O , P21/c ,1,0,1.45157417666,0.693312421888
7943, NANILI21 , Nc1ccc(cc1)N(=O)=O , P21/n ,0,0,1.43328726556,0.701401156741
7944, LEDBEE , CCON1C(CC(=O)c2ccccc2)(C(CC)C1(C(=O)OC)C(=O)OC)c1ccccc1 , P21/c ,1,0,1.1891062559799999,0.657267179024
7945, PICANO03 , [O]n1ccccc1C(O)=O , P21/m ,0,1,1.55420265667,0.7214746543780001
7946, WAHQAY , CC1(C)CC(C(=O)OCCCCCCCCCCCOc2ccc(cc2)N=Nc2ccccc2)C(C)(C)N1[O] , P-1 ,1,1,1.15797641388,0.662819794585
7948, NPHDZA , CCC(C)=NNc1ccc(cc1)N(=O)=O , P21/c ,1,0,1.26445114342,0.690841389187
7950, LEPQAZ , CC1=CC(=O)CC(C1)c1cccc(c1)N(=O)=O , P21/c ,1,0,1.3620185786399999,0.727063334437
7951, EDEROV , CC(=O)C1=C(C)ON=C1c1ccccc1 , P21/n ,0,0,1.26647781074,0.667840375587
7952, OMOLUX , O=C1N(c2cc(cc(c2)N(=O)=O)N(=O)=O)C(=O)c2ccccc12 , P2/n ,0,1,1.59094932294,0.710382766272
7953, BANHOO , COc1ccc(cc1)C=C(C#N)c1ccc(cc1)N(=O)=O , P21/n ,0,1,1.4030079520200003,0.7209791809649999
7954, TAXDUU01 , O=N(=O)OCC1=CC(=NO1)C1=NOC(=C1)CON(=O)=O , P21/n ,0,0,1.68051577018,0.715854978355
7956, DUYHAH , C[N+](C)([O-])CCCNC(=O)COc1ccc(cc1)C(C)(C)CC(C)(C)C , P21/c ,1,0,1.17310443849,0.7085606060609999
7958, SEHYIP , COc1ccc(cc1)C(C)=NOC(=O)OCc1ccccc1 , P21/n ,0,0,1.3064318545,0.6900346797229999
7959, LARJIA , O=N(=O)c1ccc(Cc2cnc3ccccc3n2)cc1 , P21 ,0,0,1.44864602335,0.732402912621
7960, RODHUO , COC(=O)C1=C(ON=C1c1ccccc1)c1ccccc1 , P-1 ,1,1,1.36790073092,0.70146195124
7962, REZHUB , CCCC(=C1Nc2ccccc2C1=O)N(=O)=O , P21/n ,0,0,1.3590786025200001,0.732633213468
7963, QIJMIH , O=N(=O)c1ccc(NCCc2ccccc2)c(c1)C#N , P21/n ,0,0,1.34800892604,0.7056132570899999
7965, NENPAX , CC1(C)N=C(N([O])C1(C)C)C1=CNN=C1 , Pna21 ,0,1,1.22976872749,0.661013995762
7967, NMBZYA02 , COc1ccc(cc1)N=Cc1ccc(cc1)N(=O)=O , P21/c ,1,0,1.40691930074,0.722130102041
7968, HIBSIW , CON=C(C)c1ccc(cc1NC1CCCCC1)N(=O)=O , P-1 ,1,1,1.30021667756,0.6784715750229999
7969, PEHXAC , CN1C=NC=C1C=NO , C2/c ,1,0,1.3389771721600001,0.690902507242
7970, SAVFIE , CN(C(C)=O)c1ccc(cc1N([O])=Nc1cc(ccc1NC(C)=O)N(=O)=O)N(=O)=O , P21/n ,0,0,1.50572902449,0.711789297659
7971, AZOXOD , CCOC(=O)c1ccc(NCCCN2C=CN=C2)c(c1)N(=O)=O , P-1 ,1,1,1.36265739485,0.692299423084
7972, FUJCUJ , O=CC1=CCC(C(C1c1ccccc1)N(=O)=O)c1ccccc1 , P212121 ,0,0,1.29911065306,0.686710398445
7973, CADJEZ , CC(C)(C)OC(=O)C1(CO1)C(O)c1ccc(cc1)N(=O)=O , P21/n ,0,0,1.3171324267,0.663773706204
7974, ZEWFAK , CCCCC(OC(=O)c1ccc(cc1)N(=O)=O)C(=CC=C)C(C=C)c1ccccc1 , P-1 ,1,1,1.2213117179000001,0.667493666919
7976, OSIHAB , CN1C=NC(=C1N1C=C(N=N1)C1CC1)N(=O)=O , P212121 ,0,0,1.48566084532,0.7230350309100001
7977, BIFSAM , CCOC(=O)C1=C2C(CCC1C)CCC1=CC(CC1(C)C2=O)OC(=O)c1ccc(cc1)N(=O)=O , P-1 ,1,0,1.28561859612,0.675965811966