ID,name,smiles,space_group,inversion_symmetry,beta_packing,density,packing_coefficient
8215, RIWNUG , CCCC(C#C)C(NCc1ccccc1)C(OC(=O)c1ccc(cc1)N(=O)=O)c1ccccc1 , P-1 ,1,1,1.21974115251,0.662972262076
8216, VIRWIC , O=N(=O)OC1CC2CCC31CCCC23ON(=O)=O , P21/n ,0,0,1.47684973252,0.693613814757
8217, FADGUM , CC(OC(=O)c1cc(cc(c1)N(=O)=O)N(=O)=O)c1ccccc1 , P212121 ,0,0,1.4189420476299999,0.686123324737
8218, CASCAD , NN1C=C(C(=N1)N1C=NN=N1)N(=O)=O , Pbca ,1,0,1.6604358415,0.7054832347139999
8220, JESZEN , CC(N1C(Nc2ccccc2C1=O)c1ccc(cc1)N(=O)=O)c1ccccc1 , P212121 ,0,0,1.31058791773,0.669287173052
8221, ITECIV , CCC(C)=C=C(c1ccccc1)c1ccccc1C(=O)NOC , P21 ,0,0,1.12849423029,0.635141688006
8222, LEFCEG , CC(=Cc1ccccc1N(=O)=O)N(=O)=O , P21/n ,0,0,1.4291359637799999,0.68756043956
8223, DOMJAS , CCOC(=O)N1C2NC(CC2(C(=O)OC(C)C)c2ccccc12)(C(=O)OC)c1cc(C)ccc1N(=O)=O , P21/c ,1,0,1.3704726991999998,0.691981602921
8224, WANPOS , COC(=O)C12COc3ccccc3C1=NOC2c1ccccc1 , P212121 ,0,0,1.3420115769299998,0.674958974359
8225, ZIMZAY , O=N(=O)c1ccc(cc1)C1=Nc2ccccc2C(O1)=C(c1ccccc1)c1cccnc1 , C2/c ,1,0,1.34133396574,0.675509603721
8227, LIHMUN , O=C1C(CN2C=CC=C2)C2CCCC2CN1OCc1ccccc1 , P21/n ,0,1,1.2663359939,0.6956059597750001
8228, TEVHEH01 , O=N(=O)C1=NC(=CN1)N(=O)=O , Pbca ,1,0,1.7898934774200002,0.7207595403749999
8229, RUXJID , CCOC(=O)C1C(C)CC2=C(C1=O)C(=NO2)c1ccccc1O , Cc ,0,1,1.38623932731,0.702015301739
8230, HUQNAK , CC(C)(C)N([O])c1cccc(c1)c1c2ccccc2cc2ccccc12 , C2/c ,1,0,1.2361828540200002,0.6912793571789999
8231, AZEHOD , CN1C(=O)C=N([O])C21CCCCC2 , P21/a ,0,1,1.28586929514,0.6806858054230001
8232, YONTIF , O=N(=O)c1ccc2c(c1)C1C3CCC(C3)C1C2=C1CCCc2ccc3ccccc3c12 , Pbca ,1,0,1.30289163983,0.6914671785609999
8233, MIGBAI , CC1(C)CCCC(C)(C)N1OC(CN1CCOCC1)C(=O)c1ccccc1 , P212121 ,0,0,1.16676216072,0.661276030128
8234, HIVWIU , CC1(CC=C)OC(COC(=O)c2ccc(cc2)N(=O)=O)CC1=O , P-1 ,1,1,1.3149768640000001,0.667510758027
8235, EWUFAD , CC(=O)N1C(CC(=O)c2cc3OCOc3cc12)c1ccc(cc1)N(=O)=O , Pna21 ,0,0,1.55554497567,0.743368023671
8237, WAPTIR , CC(O)C1(C)CC(=NO1)c1ccc(cc1)N(=O)=O , P21/c ,1,0,1.38743662701,0.6936029575049999
8238, HULDOI , CC(C)C1N(C(=O)OC1(c1ccccc1)c1ccccc1)C(=O)C=CN(=O)=O , P212121 ,0,0,1.29100502678,0.664994578622
8239, YEYFAK , COc1ccccc1C=CC(=O)c1ccc(cc1)N(=O)=O , Pbca ,1,0,1.36178455103,0.69488783434
8241, IWUPOH , CCCCC1=[N+]([O-])C2(CCCC(=O)C2)OC1=C(c1ccccc1)c1ccccc1 , P21/c ,1,1,1.2687835476,0.694284666178
8242, JUXJET , CON(OC(C)(C)C)C(N)=O , P21/c ,1,0,1.2068686334,0.654735247629
8243, ODOVOS , CC1(C)N([O])C(C)(C)c2cc3c(cc12)C(C)(C)N([O])C3(C)C , P21/n ,0,1,1.05644528094,0.6011835655309999
8245, POQFOS , CC(=O)Nc1ccc(O)c(c1)N(=O)=O , P212121 ,0,0,1.47920116963,0.702440106477
8246, SOJHII , CCOC1OC(CO)C(=O)CC1N(O)c1ccccc1 , P21 ,0,0,1.30422637179,0.701487854251
8248, COVWIT , CC1(C(C(C=C1N1CCOCC1)c1ccccc1)N(=O)=O)N1CCOCC1 , Pbca ,1,0,1.2361904694799999,0.651361764522
8249, PIPREN , CC(C)(C)N1C(C(C(=O)Nc2ccc(cc2)N(=O)=O)C1=O)C(=C)c1ccccc1 , P21/c ,1,0,1.2121264456899998,0.676660813579
8250, HIRZIS , CN(C)c1ccc(cc1)C1=NOC(=N1)c1ccccc1OCC(=O)Nc1c(C)cccc1C , P-1 ,1,1,1.30004072295,0.680329493373
8251, IXINAF , COC(=O)C=C(OC(=O)c1ccc(cc1)N(=O)=O)C(=O)OC , P-1 ,1,1,1.5707876901700002,0.743593327742
8252, SEDTUQ09 , NC(N)=C(N(=O)=O)N(=O)=O , P21/n ,0,0,1.9408235593799998,0.80525556315
8254, MABZOX , CN(C)c1ccc(cc1)C=NO , P21/c ,1,0,1.2003615242299999,0.6721808657289999
8256, HEVZIT , CC(NC(=O)OC(C)(C)C)C(=O)Nc1cccc(c1)N(=O)=O , P1 ,0,1,1.3771509059,0.709014608654
8257, PELGET , CC1=C2C=CC=NC2=NO1 , P21/n ,0,0,1.4147553182600001,0.71597996598
8258, VUXVEP , CCOC(=O)C1=NOC2=C1CC1(C)C3CCC4(C)C(CCC4(O)C#C)C3CCC1=C2 , P212121 ,0,0,1.20506335663,0.65452860352
8259, CUVPIU , CC(C)(C)OC(=O)c1cc2cc(cc(c2cc1O)N(=O)=O)N(=O)=O , P-1 ,1,1,1.5194944133500001,0.726924603175
8261, NAGYAY , COc1ccc2[n+]([O-])c(C)c[n+]([O-])c2c1 , P21/n ,0,1,1.5259136970700002,0.760293356342
8262, VENVUG , CCCCCC1(O)C(OC(=O)c2cc(cc(c2)N(=O)=O)N(=O)=O)C(C)(C)C(=O)C(C)(C)C1=O , P212121 ,0,0,1.3011928721100001,0.6666677614190001
8263, KUMMOV , CCC(CCC(C(N=Cc1ccccc1)c1ccccc1)N(=O)=O)(OC)OC , P-1 ,1,1,1.14991462875,0.630568005122
8264, AQIKIU , CC1(C)N=C(N2C=NC=N2)N([O])C1(C)C , P21/n ,0,1,1.2426933248899998,0.651414768806
8266, HUFVUA , CCOC(=O)C(=NO)C(=O)c1ccc(cc1)N(=O)=O , C2/c ,1,0,1.4632353215399998,0.7220463001880001
8267, MOQLIP , COC(C(=O)OC(C(C)C=CN1C(=O)c2ccccc2C1=O)c1ccc(cc1)N(=O)=O)c1ccccc1 , P212121 ,0,0,1.3424329519799998,0.680715630885
8268, BOSWOV , CC(=O)OCC1OC(Oc2ccc(c(c2)N(=O)=O)N(=O)=O)C(OC(C)=O)C(OC(C)=O)C1OC(C)=O , P212121 ,0,0,1.39684432815,0.649621068587
8269, ZIFMEI , O=C(C1CCCCC1)C(c1ccc(cc1)N(=O)=O)=C1C(=O)N(C(=O)c2ccccc2)c2ccccc12 , P21/c ,1,1,1.31211973482,0.671724734618
8270, PIWBED , COc1ccc(cc1)C1=NO[N+](=C1c1ccc(OC)cc1)[O-] , Pbca ,1,0,1.39464273675,0.724512330774
8272, QODFIZ , COC(=O)c1ccc(cc1)C1=NOC(=C1C(=O)c1ccccc1)c1ccc2OCOc2c1 , P21/c ,1,0,0.7134363062000001,0.357265979883
8274, RAKNIB , CN(C)CCOCCN1N=C(OCc2ccccc2)c2cc(ccc12)N(=O)=O , P21/n ,0,0,1.26907383238,0.655434039645
8275, LILJUL01 , O=N(=O)c1ccc(C=Cc2ccc3OCOc3c2)c(c1)N(=O)=O , P21/n ,0,1,1.5187617289,0.719303939824
8276, SEKJEX , CC(=O)OC1COC(CN(=O)=O)C(OC(C)=O)C1OC(C)=O , P212121 ,0,0,1.33984617665,0.64201822143
8277, CUPKUV , COc1ccc(CN2C(=CC(=O)c3cc(ccc23)N(=O)=O)c2ccc(C)cc2)cc1 , P21/c ,1,0,1.3336518686499998,0.6882366643369999
8278, VETRET , [O]n1ccccc1C1=Cc2ccccc2N1c1ccccn1 , P21/c ,1,0,1.3590132803100001,0.690440159114
8279, PENVUZ , CC(C)C1=NOC(C1)C(C)(O)C1CCC2C3CC=C4CC(CCC4(C)C3CCC12C)OC(C)=O , P212121 ,0,1,1.1505640797,0.5601397017840001
8280, IZURIG , O=C1c2ccccc2N2OC1(C(C2c1ccccc1)c1ccccc1)c1ccccc1 , P21/n ,0,0,1.31326251326,0.6917250077410001
8281, PIMMOP , O=C(OC1=C(CCC(=C1)C1(OC(OC1C1CC1)C1CC1)c1ccccc1)c1ccccc1)c1ccc(cc1)N(=O)=O , P21/n ,0,1,1.3251729060100002,0.6966417080580001
8282, JEQZIR , CCOC(=O)C1=C(CC(=O)NC)N(O)c2ccccc12 , P21/c ,1,1,1.3711835249899997,0.703745039683
8283, VEPXIY , O=NC1(CCCCC1)OC(=O)c1ccc(cc1)N(=O)=O , P21/c ,1,1,1.39132830058,0.69298735119
8285, TOLFEF , CC1(CCC(C)(N1[O])c1ccccc1)c1ccccc1 , P212121 ,0,0,1.20038306456,0.6851155462180001
8286, IEFNPZ , COC(=O)C1=C(C(=O)OC)C(=NN1c1ccc(cc1)N(=O)=O)C1OCC2OC(C)(C)OC12 , P21 ,0,0,1.41760379269,0.681358679635
8287, WIFMOQ , OC12C3CN(CC(C(C1C(=O)c1ccccc21)c1ccc(cc1)N(=O)=O)C3=O)Cc1ccccc1 , C2/c ,1,0,1.11501156333,0.562725921422
8289, SAFYAB , NC1=CC(=NN1c1ccc(cc1)N(=O)=O)C#N , Cc ,0,0,1.4670508525,0.700564205705
8290, YADHIX , CC(NC(=O)OC(C)(C)C)C(=O)C1=CN2N(C(CC2=O)c2ccccc2)C1c1ccc(cc1)N(=O)=O , P65 ,0,0,1.2255701600700002,0.62456122449
8291, VEPXUL , CC(C)(C)c1cc(cc(c1O)C(C)(C)C)C1=NC2=NON=C2N=C1c1ccccc1 , Pbca ,1,0,1.22680653243,0.654274301417
8292, PAYBIC , O=N(=O)c1ccc(C=Cc2ccc(cc2)N(c2ccccc2)c2ccccc2)cc1 , P21/c ,1,0,1.2701317316399998,0.6649110807109999
8293, ZILNOX01 , CC(N(=O)=O)(N(=O)=O)C(C)(N(=O)=O)N(=O)=O , P-1 ,1,1,1.7086408257799999,0.713356877928
8294, LELZAG , O=N(=O)c1ccc(cc1)C(=Cc1ccc2OCCOCCOCCOCCOc2c1)C#N , Pna21 ,0,0,1.33500214066,0.673915378007
8295, FICDOK , COC1=C(N=CN1C)N(=O)=O , P21/c ,1,1,1.4738592328600002,0.698705978706
8296, TIJKED , Cc1c(C(=O)OC(C)(C)C)n([O])c2ccccc2n1[O] , P21 ,0,0,1.32855148822,0.680283260845
8297, TOPPAP , COc1c(cc(N([O])C(C)(C)C)c(OC)c1N([O])C(C)(C)C)N([O])C(C)(C)C , Pnma ,1,1,1.14263261592,0.6259965524669999
8298, VANCOD , CN1C(=O)NC(=C(N=O)C1=O)N , P21/c ,1,0,1.7689216583400003,0.786295399516
8299, YUNXOU , O=N(=O)c1ccc(CCc2ccc(cc2)N(=O)=O)cc1 , P21/c ,1,0,1.42536130443,0.715312327253
8301, GITGIA , COc1cccc(C=NC2=NOC(=C2)C)c1O , Pna21 ,0,0,1.4082490783200001,0.714257703081
8302, YUBMAK , CC(=O)CC(O)c1cc(ccc1O)N(=O)=O , P-1 ,1,1,1.44985331629,0.6974866310160001
8303, NEJFOZ , CC1(C)OC2OC(C3CC4CC(N3O4)c3ccccc3)C(OCc3ccccc3)C2O1 , P212121 ,0,0,1.2998105827200002,0.6778313392540001
8304, QADLIQ , COC(=O)C=C1COC2CCCCC12N(=O)=O , P21/c ,1,0,1.3844925616600001,0.6960428733830001
8305, TUBSOA , COc1ccc(NC(=O)CCC(O)=O)c(c1)N(=O)=O , P-1 ,1,1,1.53227176294,0.7381693061839999
8306, MIXRAM , CCOC(=O)C(=C)C1(O)C(=O)N(C)c2ccc(cc12)N(=O)=O , P21/c ,1,0,1.45972431065,0.709177069628
8307, MUQNUH , CN(C)c1cccc2c(cccc12)C#Cc1cccc2c1cccc2N(=O)=O , P21/c ,1,0,1.33658149359,0.707556568727
8309, ADEZUF , OCC(CO)N(=O)=O , Pna21 ,0,0,1.44539626447,0.686409883721
8310, RIGHUK09 , Cc1cccnc1Cc1ccc(cc1N(=O)=O)N(=O)=O , P21/c ,1,0,1.3774001444600001,0.672671960808
8311, YEZNAT , COC(=O)C1(C)CC2C(C1)C1(C)CC3(CC1C23)OC(=O)c1ccc(cc1)N(=O)=O , P212121 ,0,0,1.25761257199,0.653844312612
8312, LAGZUO , CCC12CCCN3CCC4=C(C13)N(C(=C2)C(=O)OCCO[N+](=O)[O-])c1ccccc41 , P212121 ,0,0,1.36305725622,0.700495391705
8313, BAYLAP , COC(=O)C(NC(=O)OCc1ccccc1)=CCCC(C)(C)N(=O)=O , P21/n ,0,0,1.3016447885299998,0.7023891018619999
8314, QAKSUQ , CC(C(O)c1ccccc1)N(C)N=O , P212121 ,0,0,1.21080613594,0.664241361677
8316, FEVBUD01 , CC1(C)CC(O)(CC(C)(C)N1[O])C#CC#CC1(O)CC(C)(C)N([O])C(C)(C)C1 , Pca21 ,0,0,1.19305516711,0.668884609899
8317, DOPZOX , COC(NC(=O)OC(C)(C)C)C(C)(C)C(=O)NOCc1ccccc1 , P21/c ,1,0,1.18429809327,0.659037356322
8318, LAVSEJ , CN1OC(O)(C(Cc2ccccc2)C1C(=O)OC(C)(C)C)C(=O)OC(C)(C)C , P212121 ,0,0,1.18158691452,0.660459716576
8319, MERKOM , O=N(=O)C1=CN2C(COC2=N1)c1ccccc1 , P21/n ,0,0,1.49814291054,0.7166762329459999
8320, MAFVIZ , COC(=O)C12CC3=C(CN1C(=O)C(C2C1=CN(C=N1)C(c1ccccc1)(c1ccccc1)c1ccccc1)N(=O)=O)N(Cc1ccccc1)C=N3 , P21/n ,0,0,1.30295552984,0.6626836278480001
8321, SOSFUB , CC(C)(C)C(=O)OCC1OC(CO)(C2OC(C)(C)OC12)N(=O)=O , P21 ,0,0,1.3071928648200002,0.590670553936
8322, YIJPIQ , OCC1OC(Nc2ccc(cc2)N(=O)=O)C(O)C(O)C1O , P21 ,0,0,1.54959201595,0.727630805409
8323, LAGTOD , CC(=O)NOC(C)=O , Cc ,0,0,1.3194085470999999,0.663842364532
8324, CIKDAD , CNC1=C(C)N(N=C1C(=O)OC)c1ccc(cc1)N(=O)=O , P212121 ,0,0,1.4367337518799999,0.7103204556370001
8325, SAPGAS , CCOC(=O)c1cc(cc(c1O)N(=O)=O)N(=O)=O , P212121 ,0,0,1.5613381060799998,0.697276069519
8326, TUDXOH , O=C(Nc1ccccc1N(=O)=O)c1ccccc1N(=O)=O , P212121 ,0,1,1.5696273515999999,0.7361399424449999
8327, CAVDAF , CN1OC(=O)N(C1c1ccccc1N(=O)=O)c1ccccc1 , P21/c ,1,0,1.4162936565600002,0.6969637353270001
8328, PESCAT , CCOC(=O)CC(CN(=O)=O)C(CC(C)C)NC(=O)CC(CN(=O)=O)C(NC(=O)OC(C)(C)C)C(C)C , P32 ,0,0,1.19982576095,0.64784468054
8329, NOLHIG , COC(=O)C1=C2C=CC=CC2=C(C)N1c1ccc(cc1)N(=O)=O , P-1 ,1,1,1.3712980611399999,0.677656428425
8330, DMNPYO , Cc1cn([O])cc(C)c1N(=O)=O , P41212 ,0,0,1.49928312708,0.7405083917219999
8331, NAWLAA , COC(=O)C(NC(=O)C12CCC(C)(C(=O)O1)C2(C)C)C(CN(=O)=O)c1ccccc1 , P212121 ,0,0,1.3062272203299998,0.671439767129
8332, TADVEA , CON(C)C=C1C(=O)OC(C)(C)OC1=O , P-1 ,1,1,1.378800693,0.696061001146
8333, HIYMIL , O=N(=O)[N-]n1c[nH+]nc1 , P212121 ,0,0,1.8185992507700002,0.765578915824
8334, JUBCEO , CCOC(=O)c1ccc(NN=[N+](C)[O-])cc1 , P21/c ,1,0,1.33756375358,0.7115970259819999
8335, ZATNOX , CC(C)(C)NC(=O)C1CCC[N+]1([O-])CC(N)=O , P212121 ,0,0,1.23792840598,0.6766603798199999
8336, GAHGOM , COc1ccc(COC2CCC3CC(=O)N3O2)cc1 , P212121 ,0,1,1.31589845558,0.684306484578
8338, VEZGAJ , CCOc1ccc(cc1)[N+]1=NOC(=C1C1=NC(=C(N1Cc1ccccc1)c1ccccc1)c1ccccc1)[O-] , P-1 ,1,1,1.25512466996,0.649301030354
8339, POZQOL , O=CC1C(C1N(=O)=O)c1ccc(cc1)N(=O)=O , P212121 ,0,1,1.49145611607,0.688346883469
8340, JABLUW , O=N(=O)N1C=CC(=N1)N1C=NN=N1 , P212121 ,0,0,1.7240802509,0.731023576768
8341, VACBAC , CC(N)=C(C#N)C(O)c1ccccc1N(=O)=O , P-1 ,1,1,1.3372458997299999,0.614696969697
8342, CUCBOS , C1CCC(CC1)N1OCC2CN3C(=Nc4ccccc34)C12 , P21/c ,1,0,1.3395954271700001,0.726246779086
8343, SASRAF01 , CCCOc1c2Cc3cc(cc(Cc4cc(cc(Cc5cc(cc(Cc1cc(c2)N(=O)=O)c5OCCC)N(=O)=O)c4OCCC)N(=O)=O)c3OCCC)N(=O)=O , Fddd ,1,0,1.3994906571099999,0.6797305727770001
8345, LEVPIL , Cc1cc2C3ON4OC3C(O)C(c2cc1C)C4(N(=O)=O)N(=O)=O , P21/c ,1,0,1.58442217353,0.725005727377
8346, PEYSUH , CNN(O)C(=O)CNC(=O)C1CCCN1C(=O)C(C)(C)C , P-1 ,1,0,1.8849338767,0.81504254338
8349, XOZFEY , Cc1cc(C)c2c3ccccc3C(=O)N3C(C(=O)NC4CCCCC4)c4cc(ccc4Oc1c23)N(=O)=O , P21/c ,1,0,1.3476969985,0.6837209302330001
8350, MEGDEI , NC(=O)c1ccc[n+]([O-])c1 , P21/n ,0,0,1.5962899560400001,0.7759447962010001
8352, HADCAT01 , Cc1c(cc(cc1N(=O)=O)N(=O)=O)N=Nc1cc(cc(c1C)N(=O)=O)N(=O)=O , P-1 ,1,1,1.69896926643,0.759782608696
8353, ZIHFEE , COC(=O)NC1=NON=C1c1ccccc1 , C2/c ,1,0,1.48831741588,0.725325897525
8354, NTBYPY , O=N(=O)c1ccc(Cc2ccncc2)c(c1)N(=O)=O , P21/c ,1,1,1.4597640915299999,0.6968119505429999
8355, GEMZUV , CCN1N=CC(=C1C)C1=[N+]([O-])C(C)(C)C(C)(C)N1[O] , Pbca ,1,0,1.21858247354,0.6674812708910001
8356, BIBXEQ , COc1ccc(cc1)C12C=CC3(CCCCC13C)C1C2C(=O)CCC21CC(=NO2)C , P21/n ,0,0,1.27388641215,0.692873143021
8358, TUGXEZ , Cc1ccc(cc1)C1N(OC(CC2=C(C)OC(=C12)c1ccccc1)c1ccccc1)c1ccc(C)cc1 , P-1 ,1,1,1.21857888911,0.6571876197559999
8359, APUHOK , CC(C)(C)CC1(N([O])c2ccc(cc2C1=Nc1ccccc1)C(C)(C)C(=O)Oc1ccc(cc1)N(=O)=O)c1ccccc1 , P-1 ,1,1,1.2504785112799999,0.654838455942
8360, COMDIT , O=C(OC(C1CC1)c1ccccc1)c1cc(cc(c1)N(=O)=O)N(=O)=O , C2 ,0,0,1.4584325349,0.70933570257
8362, RAVCUM , CC1(C)CC2(CC(C)(C)N1[O])N=C(OCc1ccccc1)OC2=O , P21/n ,0,0,1.2037750526200002,0.646517783292
8364, DEMPEQ , CC1=CC(C)(O)C(=O)C(C)(C)C1N(=O)=O , P-1 ,1,1,1.26526159795,0.658986855708
8365, RILXOB , Cc1[n+]([O-])c(nc2ccccc12)c1ccc(cc1)N(=O)=O , P21/n ,0,0,1.48248985145,0.721862887597
8366, AZEHIX , CC(C)C1(C)N(C)C(=O)CN1OC(=O)C(OC(=O)c1ccccc1)C(OC(=O)c1ccccc1)C(O)=O , P32 ,0,0,1.28339215376,0.6470748299319999
8367, YAGTIL , COc1ccc(C=NNC(=O)c2cccc(c2)N(=O)=O)c(O)c1 , P21/n ,0,0,1.4218646614100001,0.681923859343
8368, BEMZEZ , CCOc1cc(C=O)ccc1OCc1ccc(OCc2ccc(OCc3ccccc3)c(c2)N(=O)=O)c(C)c1 , P-1 ,1,1,1.37715828296,0.7187241093619999
8369, QOYJOD , O=C1NN=C(N1)N(=O)=O , P21/c ,1,0,1.91852019412,0.76367781155
8370, DUGMUN01 , ON=C(C#N)c1ccccc1 , P21/c ,1,0,1.35099259924,0.7052025355600001
8371, HEHXEZ , CCCCN1c2cc(ccc2c2ccc(cc12)c1ccc(cc1)N(=O)=O)N(c1ccccc1)c1ccccc1 , C2/c ,1,0,1.25322422091,0.660343478323
8372, PEHMOE , CNC(=O)CN(C1=NC(=NO1)c1ccccc1)C(=NO)c1ccccc1 , C2/c ,1,1,1.38499900575,0.644827102881
8373, FEVGEV , CC1ON2C=Cc3ccccc3C2C(C)C1=O , P21/c ,1,0,1.29349221655,0.690998116761
8374, ESUQOZ , CCC1ON(C2CC(CCC12)C(CC#C)(C#N)C#N)c1ccccc1 , P212121 ,0,0,1.21218960298,0.685540013363
8375, AFIKIK , CCN(CC)c1ccc(C=NOCCON=Cc2ccc(cc2O)N(CC)CC)c(O)c1 , P21/c ,1,0,1.22287790373,0.664838751795
8376, BUWRIW , [O]N1N([O])c2ccc3ccccc3c2c2c1ccc1ccccc21 , P21/n ,0,0,1.4238641793399998,0.7015309893359999
8377, YEHDOF , CC(C)(CC12CC1CC=C2OC(=O)c1ccc(cc1)N(=O)=O)C=C , P-1 ,1,1,1.28418402764,0.695544733045
8378, IPOCEV , [O]n1ccc(cc1)c1cc(nc(c1)c1ccccn1)c1ccccn1 , Pbcn ,1,0,1.37575780019,0.698983489042
8379, YALQEK , CN1N=C(N)C(=N1)N(=O)=O , P21/n ,0,1,1.57624126795,0.701844111138
8380, KUYVAD , Cc1nc(NNc2nc(C)c(cc2N(=O)=O)N(=O)=O)c(cc1N(=O)=O)N(=O)=O , P21/n ,0,0,1.7011378328400002,0.740836334534
8381, QOHYAN , CCOC(=O)C(C)(NC(=O)c1ccc(cc1)N(=O)=O)C(C)CC , P212121 ,0,0,1.28309593802,0.6757949869059999
8382, MAMDOU , O=C1CCC(=O)N1OC(=O)C1CCC(CC1)CN1C(=O)C=CC1=O , Pbca ,1,0,1.3393448370999999,0.661594870506
8383, MAKSEZ , CC1=C(C=CC(=O)C=Cc2cccc(c2)N(=O)=O)C(C)(C)CCC1 , Pbca ,1,0,1.2166080613799999,0.669098923485
8384, YUDMAL , O=C1OCCC21CC(=NO2)c1ccccc1 , P212121 ,0,0,1.38358492662,0.700788342093
8385, QECLUH , Cc1c(cccc1N(=O)=O)N=CC1=CC=C(O1)c1ccc(cc1)N(=O)=O , P21/c ,1,0,1.48634351512,0.723387723388
8386, VUJVUR , O=N(=O)c1ccc2N(CCCN3c4ccccc4c4ccccc34)c3ccccc3c2c1 , P-1 ,1,1,1.3432234714500002,0.7032022351170001
8387, MENRON , O=N(=O)C1(CCCC2(c3ccccc3C(c3ccccc23)C(N(=O)=O)(N(=O)=O)N(=O)=O)N(=O)=O)c2ccccc2C(c2ccccc12)C(N(=O)=O)(N(=O)=O)N(=O)=O , C2/c ,1,1,1.5247656010100001,0.685919150858
8388, QAXDOI , COC1=NOC2=C1C(CCC2)=NO , P-1 ,1,1,1.4947511049899997,0.7449633699629999
8389, SOLFOP , CC1COC2(OC3CC4C5CCC6CC(CCC6(C)C5CCC4(C)C3C2C)OC(C)=O)C(=C1)N(C)N(=O)=O , P21 ,0,0,1.18936367915,0.647876370887
8390, TIDHOE , COC(=O)C1(CC2=CC(CC2=O)Cc2ccccc2C1CN(=O)=O)C(=O)OC , P212121 ,0,0,1.43902934259,0.7213594771240001
8391, MIBJIR01 , CC1(C)OC2C(O)CC3CON=C3C2O1 , P21 ,0,0,1.38869497538,0.7041129275169999
8392, MELSAY , CN1C(=O)C2(C)C=C(ON2C1(C)C(C)(C)C)c1ccccc1 , P212121 ,0,0,1.1369723378299998,0.6313615023470001
8394, LIMQIH , CCOC1CC(C2CC(ON2O1)C#N)C(OC(C)=O)C(OC(C)=O)C(OC(C)=O)C(COC(C)=O)OC(C)=O , P21 ,0,0,1.25969035031,0.627018472395
8395, POSGEK , CN1OC2CC(O)C3OC(C)(C)OC3C1C2 , P212121 ,0,0,1.28641079112,0.6717410427089999
8396, TPNITR01 , [O-][N+](c1ccccc1)=C(c1ccccc1)c1ccccc1 , Pbca ,1,0,1.2672806029700001,0.6898711165379999
8397, PEHVIH , CC1ON(C)C2C1CN1c3ccccc3C(=C21)C , P21/c ,1,0,1.2194718883700002,0.668957842367
8398, KINXAJ , O=N(=O)C12CN(CC1C=C(Oc1ccccc1)C1=[N+]([O-])ON=C21)Cc1ccccc1 , P21/c ,1,0,1.4207474986300002,0.6932876723549999
8399, YUJYAE , OC1(COC2C(COC12)ON(=O)=O)C1OC2C(COC2C1(O)CN(=O)=O)ON(=O)=O , P212121 ,0,0,1.6690361965,0.717422052764
8400, HUYMUK , O=N(=O)c1ccc(cc1)c1c(cc(cc1c1ccccc1)c1ccccc1)c1ccccc1 , P-1 ,1,1,1.26792969659,0.675552783409
8401, RERXES01 , CC1(C)N=C(N([O])C1(C)C)c1ccc2ccc3cccc4ccc1c2c34 , P21/c ,1,0,1.2763673530700002,0.693808262357
8402, RUSCOZ , O=N(=O)c1ccc(cc1)C(=Cc1ccc(cc1)N1C=CN=C1)C#N , P21/c ,1,0,1.41651384236,0.7088248828650001
8404, QUZCEU , O=C(CCCOc1cccc2cccnc12)NN=Cc1cccc(c1)N(=O)=O , P-1 ,1,1,1.2887899442200001,0.647442451281
8405, ENIZEG , CN(C)c1ccc(cc1)C=C1OC(=O)c2cc(ccc12)N(=O)=O , P21/c ,1,0,1.42068334034,0.7100875420880001
8406, GUZKET , O=C(CN1C=CC=C(C1=O)N(=O)=O)Nc1ccccc1 , P21/c ,1,0,1.49866912546,0.72316727036
8407, GOFSIE , Oc1cccc(C=NOCCCON=Cc2cccc(O)c2O)c1O , C2/c ,1,1,1.38062044545,0.6813309671690001
8409, YILNOW , O=C(OCC1OCN2C(C(OCc3ccccc3)C1OCc1ccccc1)C(OCc1ccccc1)C2=O)c1cc(cc(c1)N(=O)=O)N(=O)=O , P212121 ,0,0,1.33178705667,0.666779715762
8410, QEDVUT , CC1=NN(C=C1)c1ccc(cc1)N(=O)=O , P212121 ,0,0,1.4404358278600002,0.72576509512
8411, NPHOAC , OC(=O)COc1ccc(cc1)N(=O)=O , P-1 ,1,1,1.59381613519,0.7274257071250001
8412, GEGLUC , O=C(c1ccccc1)C1=[N+]([O-])N(Cc2ccccc2)c2ccccc12 , P21/n ,0,0,1.34629467988,0.7015105461910001
8413, QODFOF , Cc1cccc(C)c1N1C(=O)C(C(=O)N(O)c2ccccc2)C(C)(C)C1=O , P21/c ,1,0,1.2732808524600001,0.6708238514429999
8414, XUSSUB , CON=C1OCC(OC(C)=O)c2ccccc12 , P21/n ,0,0,1.31996879142,0.670792126435
8415, LANLOC , CC(C)OC(=O)c1cc(cc(c1)N(=O)=O)N(=O)=O , P21/n ,0,0,1.4372401254299998,0.678633952255
8416, MUNJEL , CC(C)(C)NC(=O)C(N(Cc1ccccc1)c1ccccc1N(=O)=O)c1ccccc1 , P21/c ,1,0,1.23027396929,0.661494207282
8417, PUDGEA , CNC(NC(C)c1ccccc1)=CN(=O)=O , P21 ,0,0,1.26740923848,0.609510262142
8418, TAKJEU , CCC1OC(=O)C(C)C(OC2CC(C)(OC)C(O)C(C)O2)C(C)C(OC2OC(C)CC(C2O)N(C)C)C(C)(O)CC(C)C(=NOC)C(C)C(OCOCCN(C)C)C1(C)O , P212121 ,0,0,1.1742351581000001,0.557092205372
8420, FAKFAA , CC(C)c1cccc(C(C)C)c1N1C=CN(C1=NN=O)c1c(cccc1C(C)C)C(C)C , P21/n ,0,0,1.1036124861299998,0.636734962384
8421, FUFXAG , OC(C1CCCC1=O)c1cccc(c1)N(=O)=O , P212121 ,0,0,1.3964878853100002,0.707153635117
8422, SAWBUN , OC(=O)c1c(cc(cc1N(=O)=O)N(=O)=O)N(=O)=O , P212121 ,0,0,1.7857673014500002,0.72695434953
8423, INIBAK , NN1N=NC(=C1N)N(=O)=O , P21/n ,0,0,1.7224466173599997,0.720511346528
8424, UCONOP , O=NN1CCc2ccccc12 , P21/c ,1,0,1.33724506895,0.693522967519
8425, WUVWAL , Oc1ccccc1C=NNc1ccc(cc1)N(=O)=O , Pc ,0,0,1.4171150894,0.697692307692
8426, FEGPAJ , CC(C)(C)c1cc2Cc3cc(cc(Cc4cc(cc(Cc5cc(cc(Cc(c1)c2OCCCN1C(=O)c2ccccc2C1=O)c5OCC=C)N(=O)=O)c4OCCCN1C(=O)c2ccccc2C1=O)C(C)(C)C)c3OCC=C)N(=O)=O , C2/c ,1,0,1.1958022410299998,0.626794504097
8427, JADRAI , CC(=O)OC(C(=O)N1CCc2ccccc2C1c1ccccc1N(=O)=O)c1ccccc1 , P212121 ,0,0,1.29312829795,0.661872184924
8428, YIFNUY , O=C1CN2C(COC2=Nc2ccccc2N(=O)=O)CN1C1CCCCC1 , P21/n ,0,0,1.33635279823,0.67253101737
8430, KEMSUR , [O-][N+](=Cc1ccccc1)C1=COCCC1 , Pbca ,1,0,1.31430599678,0.749734118246
8431, DAJVEP , OC(C1C2C(CON2Cc2ccccc2)CN1CC=C)c1ccccc1 , P212121 ,0,0,1.20625715418,0.664504114124
8432, SAYROZ , CCN(CC)C(=O)C(C)(NOC(C)=O)C(C(C)=O)c1ccccc1 , P-1 ,1,1,1.1885712745,0.653939393939
8434, REWDUS , CCOC(=O)C1=C(C)NC(=O)NC1c1cccc(c1)N(=O)=O , P21/n ,0,1,1.43930461744,0.697101449275