ID,name,smiles,space_group,inversion_symmetry,beta_packing,density,packing_coefficient
7978, QEWWOF , CC12CCC(=O)C1C1CCCC(OC(=O)c3cc(cc(c3)N(=O)=O)N(=O)=O)C1(C)CC2 , C2 ,0,0,1.3947470737799998,0.7091315237260001
7979, ALUNOL , OCC1OC(ON2C(=O)c3ccccc3C2=O)C(N=[N+]=[N-])C(O)C1O , P212121 ,0,0,1.54678182699,0.711687306502
7980, ECIJAE , CCOC(=O)C1ON(=C(C1c1cc(OC)c(OC)c(OC)c1)C(=O)OCC)[O] , P21/n ,0,0,1.4076458499700002,0.707293569848
7981, BOMHAO , Cc1c(C)c(c(C)c2CCC(C)(C)Oc12)N(=O)=O , Pca21 ,0,0,1.26026874122,0.692779493003
7982, PIRLAF , CCOC(=O)C1=[N+]([O-])OC2OCCC12 , P21/c ,1,0,1.4700726801700001,0.832217714672
7983, BUVMAI , O=C(ON=C1C2CCCC1C(NC2c1ccccc1)c1ccccc1)c1cccnc1 , P21/n ,0,1,1.27080559714,0.665235606646
7984, PELMID , O=N(=O)c1cccc(C=NN=Cc2ccccc2N(=O)=O)c1 , P21 ,0,0,1.48122844553,0.7193772401430001
7985, AHEDOH , CC(=O)OCC1OC(Oc2cc(c(cc2OC2OC(COC(C)=O)C(OC(C)=O)C(OC(C)=O)C2OC(C)=O)N(=O)=O)N(=O)=O)C(OC(C)=O)C(OC(C)=O)C1OC(C)=O , P22121 ,0,0,1.4039319102599999,0.656529879856
7986, QUXGAT , CNC(=O)CCC(Cc1ccccc1)NC(=O)C(C)(C)NC(=O)CC(CN(=O)=O)C(Cc1ccccc1)NC(=O)C(C)(C)NC(=O)OC(C)(C)C , P21 ,0,0,1.12754151524,0.6040511497959999
7987, IGAPEL , O=N(=O)c1ccc(CN2Cc3cccc(CN(Cc4ccc(cc4)N(=O)=O)c4ccccc4OCCCOc4ccccc24)n3)cc1 , P21/n ,0,0,1.3504317298800002,0.685605469212
7988, MIGVIK , Cc1c2C=NN(c3ccccc3)c3nc(N)c(C#N)c(nc1c1ccc(cc1)N(=O)=O)c23 , C2/c ,1,0,1.1448644029200001,0.551820826675
7991, NOKSAJ , CC(C)(C)OC(=O)N1CN(=C(c2ccccc2)C(=Cc2ccccc2)N1C(=O)OC(C)(C)C)[O] , P-1 ,1,1,1.1996230000499999,0.637628384687
7993, MOQNIQ , CC1=NC(OC1=O)(C(CN(=O)=O)c1ccccc1)c1ccccc1 , P21/a ,0,0,1.3024424028000001,0.659585782522
7995, SEPTAL , CC1N(OC2c3ccccc3C3CON(c4ccccc4)C123)c1ccccc1 , P21/n ,0,0,1.28741394003,0.6840595536249999
7996, GASKER , COCOCC1OC2(ON(C)C(C2C(=O)OC)c2ccccc2)C2OC(C)(C)OC12 , P212121 ,0,0,1.28863417348,0.658374792703
7997, SUFZIC , O=N(=O)c1ccc2OCCOCCOCCOCCOc2c1 , Pca21 ,0,0,1.5059421936200001,0.638394805195
7999, NBZANO , Oc1ccc2ccccc2c1N=Nc1ccc(cc1)N(=O)=O , P11b ,0,1,1.45682271366,0.6880482456139999
8000, VIYYIL , O=N(=O)c1ccccc1OCCCN(CCCOc1ccccc1N(=O)=O)CCCOc1ccccc1N(=O)=O , P21/c ,1,0,1.3448996901199999,0.675817423744
8001, IFUNII , CCC(C(C)C(CN(=O)=O)c1ccc(OC)cc1)=C1C(=O)N(C(=O)OC)c2ccccc12 , P212121 ,0,0,1.29310442384,0.670395827577
8005, TONZUS , CCOC1CCC(=C(C)O1)OC(=O)c1ccc(cc1)N(=O)=O , P-1 ,1,0,1.31560506402,0.668174962293
8006, VUYWUI , Nc1ccc(cc1Oc1ccccc1)N(=O)=O , P21/c ,1,0,1.38573340463,0.68000955338
8007, HIFXEB , CON=C(c1ccccc1)c1ccccc1C , P21/c ,1,0,1.22645453487,0.7379086143089999
8008, DUNVAK , None , Pnma ,1,1,1.44823290226,0.694018739571
8010, UDEYAF , CC1=NON=C1N(CC(N(=O)=O)(N(=O)=O)N(=O)=O)N(=O)=O , P21/c ,1,0,1.78514172002,0.723042596349
8011, AMOTEC , COc1cc(OC)c2c(c1)C(OC(=O)C13CCC(C)(C(=O)O1)C3(C)C)C1(CC=C(C)C)C=CC(OC)(OC)C3=C1C2=NO3 , P212121 ,0,1,1.27097897963,0.656671399942
8012, AHIJEH , CC(C)ON=C1C(=O)N(c2ccccc2)c2ccccc12 , P-1 ,1,1,1.24412957767,0.656236275801
8013, LIGYEF , OC12C(CCCC1N(=O)=O)CCc1ccccc21 , P-1 ,1,1,1.3496525841299998,0.722831651309
8014, FITPED , O=C1C2CC3CC1CC(C3)(C2)c1ccc(cc1)N(=O)=O , C2/c ,1,1,1.37826306992,0.709306826179
8015, DUHPOL , CC1(C=C(c2ccccc2)C(=O)C(C1N(=O)=O)(c1ccccc1)N(=O)=O)N(=O)=O , Pna21 ,0,0,1.42189306072,0.6824261819640001
8016, BUHLEW , CN(C)C(Nc1ccccc1)=C1C(=O)ON=C1c1ccccc1 , P21/c ,1,0,1.34496375283,0.698125
8017, PAZYOF , CC(C)c1cccc(C(C)C)c1NC=C(C=Nc1c(cccc1C(C)C)C(C)C)N(=O)=O , P-1 ,1,1,1.15486204794,0.658546123764
8018, BIWZIR , Cc1ccc(NN=C(N=Nc2ccc(C)cc2)N(=O)=O)cc1 , P-1 ,1,1,1.3470316020500002,0.683664681631
8019, MNPYDO28 , Cc1cn([O])ccc1N(=O)=O , P212121 ,0,0,1.75586022143,0.820653333333
8020, QOTZOQ , CN1CCCNCCN(CCCNCC1)Cc1ccc(cc1)N(=O)=O , P212121 ,0,0,1.1897581983,0.7128498830359999
8021, JADNOS01 , CC1=[N+]([O-])C(C)(C)C(C)(C)N1[O] , P21/n ,0,0,1.19783503485,0.6820864898989999
8022, CUPQEL , NC(=O)C(N=Cc1cccc(c1)N(=O)=O)c1ccccc1 , P212121 ,0,0,1.3446235953499999,0.676312896785
8023, QEDJUH , O=N(=O)C1=NN(C=C1)c1ccc(cn1)C#N , P21/n ,0,0,1.55923152324,0.726944444444
8027, FUQKOR , CC(C)C(NC1=NC(=C(N=O)C(=O)N1C)N)C(O)=O , P212121 ,0,0,1.3657541841,0.738401559454
8028, QONWIB , O=C1C(=C(c2ccccc2)C(=C1c1ccc(cc1)N(=O)=O)c1ccccc1)c1ccc(cc1)N(=O)=O , C2/c ,1,0,1.34600377665,0.673503020277
8029, DIJSIA , OC(c1ccc(cc1)N(=O)=O)C1(OCCOC1=O)c1ccccc1 , P21 ,0,0,1.45356287114,0.706921550672
8030, HUHZIU , CC(C)OC1OC(COC(=O)C(C)(C)C)C(OC(=O)C(C)(C)C)C(OC(=O)C(C)(C)C)C1=NOC(=O)c1ccccc1 , R3 ,0,0,1.13349069519,0.598441671002
8031, MUDWEO , O=N(=O)c1cc(c(Nc2ccccc2)cc1Nc1ccccc1)N(=O)=O , P21/c ,1,0,1.3930938872999998,0.673543348543
8032, BOZGED , CN1C=C(C(=N1)C(O)=O)N(=O)=O , P21/c ,1,1,1.617603479,0.72378516624
8034, USUMAX , Cc1ccc(cc1)C(=O)C=C1C(=C2N=CCC=CN2C1(O)c1ccc(C)cc1)N(=O)=O , P-1 ,1,0,1.30646446518,0.6718776009440001
8035, DOVGUR , OC(=O)C1CCCCC1C(=O)N1OCC2COc3ccccc3C12 , P21 ,0,1,1.3288964549200002,0.679363037394
8036, NAQCIU , CC1=NOC(=O)C21Cc1ccccc1N1CCCC21 , P21/n ,0,0,1.3042339786100001,0.674020319303
8037, FOBZUS , O=N(=O)c1ccccc1C1=Nc2ccccc2N1 , Pbca ,1,0,1.4030528485299998,0.6819523809520001
8040, QUNDOT , CC1(C)OC2OC(C(CC=C)N(O)Cc3ccccc3)C3OC(C)(C)OC3C2O1 , P212121 ,0,0,1.2450247806599999,0.653735849057
8041, NTPYRO03 , [O]n1ccc(cc1)N(=O)=O , Pnma ,1,1,1.6367883132799999,0.740952380952
8043, DEVROL , OC(c1ccc(cc1)N(=O)=O)=C1C(=O)OC(=O)c2ccccc12 , Pc ,0,0,1.5456209561399998,0.72098576529
8045, YOHPES , CC1(C)CCCC(C)(C)N1OC1CCCCC21COC(=O)N2c1ccccc1 , P21cn ,0,0,1.21076648517,0.680494682094
8046, BANBUP , CCCCN1C(C(C)C)C(C(Cc2ccccc2)C1=O)N(=O)=O , P21/c ,1,0,1.22734665681,0.692642320086
8047, YUGFAJ , NC(=O)OCC(COC(N)=O)(N(=O)=O)N(=O)=O , Pna21 ,0,0,1.7080465336300001,0.7190384084
8049, AQAGOO , O=NN(C1CCCCC1)C1CCCCC1 , P21/n ,0,0,1.1485644048499999,0.662260891818
8050, QEBLEQ , CCOC(=O)C1C(N2CCC(=O)N2C=CC(=C1C)C(=O)OCC)c1ccc(cc1)N(=O)=O , Cc ,0,0,1.35078758367,0.682166537501
8051, VERXOG , O=N(=O)c1cccc(c1)C1=NCCO1 , P21/c ,1,0,1.49660593014,0.727381340285
8052, HASWEG , O=C1N(c2cc[n+]([O-])cc2)C(=O)c2cccc3cccc1c23 , P21/n ,0,0,1.48554853165,0.716270091066
8053, TUXSIQ , CCOC(=O)c1ccc(cc1)N1OC(C)C=CC1NC(=O)OCc1ccc(cc1)N(=O)=O , P212121 ,0,0,1.28880227868,0.644024390244
8055, WAMTOW , CCOC(=O)C1=C(C)NC(=O)N(CCC#N)C1c1cccc(c1)N(=O)=O , P-1 ,1,1,1.33891473351,0.6683463979100001
8056, HABNIH , COc1ccc(cc1)C1C2CCCC(C(N1N=O)c1ccc(OC)cc1)C2=O , P212121 ,0,0,1.3494323804700001,0.732527563969
8057, GIRWAH , COC(=O)C(=C)C1O[N+](=C(C1c1ccccc1)C(=O)OC)[O-] , P-1 ,1,1,1.3776542531600002,0.6837342079690001
8058, UFOHAA , COC(=O)C1(CC(ON(C1c1ccccc1)c1ccccc1)c1ccccc1)N(=O)=O , P-1 ,1,1,1.37091304748,0.705197580198
8059, LEKVEF , COc1ccc(cc1)C1CC2=CC(=O)CCC2C(c2ccccc2)C21C(=O)ON=C2C , P21 ,0,0,1.31050338426,0.688059998673
8060, DAGROT , CC1(C)C2CCC31C(C2)OC(=O)N3C(=O)C(O)C(c1ccccc1)N(=O)=O , P212121 ,0,0,1.3121516604,0.65941813373
8061, NUQZOP , O=C(c1ccccc1)C1=CN(N=C1C1=CC=C(O1)N(=O)=O)c1ccccc1 , P21/c ,1,1,1.47228076294,0.727485380117
8062, REJROQ , O=N(=O)N(CC(N(=O)=O)(N(=O)=O)N(=O)=O)C1=NON=C1C1=NOC(=NO1)C1=NON=C1N(CC(N(=O)=O)(N(=O)=O)N(=O)=O)N(=O)=O , P21/c ,1,0,1.9506723244599997,0.747215421453
8063, LEPSIJ , CN1N(C(=O)C(=C1C)N=Cc1ccccc1OCCOc1ccccc1N(=O)=O)c1ccccc1 , P21/c ,1,0,1.3183373576200001,0.6701467089109999
8064, WITJEO , None , P21 ,0,0,1.26392372859,0.6585316411069999
8065, BAYXIJ , COC(=O)C(=O)Nc1ccc(cc1N(=O)=O)N(=O)=O , P21/c ,1,0,1.6602790142100001,0.7187569676700001
8066, LAQSUT , CC(=NNc1ccc(cc1)N(=O)=O)c1c(O)cccc1O , P21/n ,0,0,1.46416473711,0.716646576663
8067, AWUCOK , Cc1ccccc1N=Cc1cccc(c1)N(=O)=O , P21/a ,0,0,1.36296578954,0.719134284309
8068, LOXPET , COc1ccc2OCC3CON(C(CO)c4ccccc4)C3c2c1 , P212121 ,0,0,1.34943976773,0.701544667454
8072, HIHHAH , CC(=O)c1cccc(c1)N(=O)=O , P21/n ,0,1,1.40744608869,0.7007371007369999
8074, CUKCAM14 , OC(=O)c1cc(cc(c1)N(=O)=O)N(=O)=O , C2/c ,1,0,1.70669880068,0.7382795775650001
8075, YIXNUP , CN1C=Nc2ccc(cc12)N(=O)=O , Pbca ,1,0,1.46976512576,0.710304427158
8076, NONZAR , N#CC(C#N)=C1C=CC(C2=NON=C12)=C(C#N)C#N , Pbca ,1,0,1.4694553651700002,0.6972749488519999
8078, ODISEZ , CC(=O)OCC1OC(OC2C(O)C=COC2c2ccc(cc2)N(=O)=O)C(OC(C)=O)C(OC(C)=O)C1OC(C)=O , P21 ,0,0,1.39614582348,0.670475731276
8080, LUVNIA , CN(CN(C1=NN=NN1C)N(=O)=O)N(=O)=O , P21/c ,1,0,1.5939132607700002,0.702963525836
8081, HOLJIC , O=N(=O)c1ccc(NN=C2CCCCCC2)c(c1)N(=O)=O , P21/n ,0,0,1.45968965336,0.732807408678
8082, OBAKAF , CC12ON(C(=O)OCc3ccccc3)C(C)(c3ccccc13)c1ccccc21 , P21/c ,1,1,1.3038118775,0.684651155148
8083, XOGZUO , COC(=O)C1(CCC(=O)N1Cc1ccccc1)C(CN(=O)=O)c1ccccc1 , P21/n ,0,1,1.30791407327,0.673954402765
8084, LUHFAV , CC1(C)C=C(C#Cc2cccc3cccc(C#CC4=CC(C)(C)N([O])C4(C)C)c23)C(C)(C)N1[O] , P21/n ,0,0,1.16844219435,0.661435660739
8085, LABJON , O=C1CN(N=CC2=CC=C(O2)N(=O)=O)C(=O)N1 , P21/n ,0,1,1.6518104109799998,0.7240350877189999
8087, SEJDIV , Cc1cc(C)c(c(C)c1)C1=NOC(C1C(=O)OC1CCCCC1c1ccccc1)C(C)(C)C , P212121 ,0,1,1.12237346948,0.642409442409
8088, RAXRAL , ON=CC1(NCc2ccccc2N1)C1=CC=CO1 , C2/c ,1,0,1.34566238863,0.680811244366
8089, OCENIV , CC1(C)N([O])C(=N([O])C1(C)C)c1ccccc1OCCO , Pca21 ,0,0,1.23981672834,0.650704827847
8090, PRFUXC , CC(C)OC(=O)NC1=N([O])ON=C1C , P21/c ,1,1,1.3778113296599999,0.681903638151
8092, LAYHOI , CC(C)(C)C1(N([O])c2ccccc2C1=Nc1ccccc1)c1ccccc1 , P212121 ,0,0,1.1984562152399998,0.6771543560609999
8094, UGOMEJ , CCCCC1=Cc2ccccc2C(CN(=O)=O)N1C(C)c1cccc2ccccc12 , P-1 ,1,1,1.2481265183299999,0.684841778592
8095, NUVKUK , CN1C(=O)C2ON3C(COCC3(C)C2C1=O)C(O)COC(C)=O , P212121 ,0,0,1.43202927309,0.705831566975
8097, GUPJAD , O=C(NCC#C)C1=CC=C(O1)N(=O)=O , P21/c ,1,0,1.4648309723100001,0.687145859605
8098, KIRCAP , COC(=O)C1ON2OC1c1cc(cc(c1C2(N(=O)=O)N(=O)=O)N(=O)=O)N(=O)=O , P21/c ,1,0,1.79625175152,0.732722722517
8099, VABJEQ , CCCCC(C=NNc1ccc(cc1N(=O)=O)N(=O)=O)=C(Cc1ccc(C)cc1)c1ccccc1 , Pbca ,1,0,1.23827503852,0.6520801467180001
8100, DNPHOL02 , Oc1c(cccc1N(=O)=O)N(=O)=O , Pna21 ,0,0,1.78702111271,0.78707010582
8101, SATGAV , CC(CCC(O)=O)C1CCC2C3CCC4CC(CCC4(C)C3CCC12C)=NO , P61 ,0,0,1.0417962512799999,0.591143907366
8102, YORSEF , C1CC2Oc3ccccc3C3=NOC(=C23)C1 , P212121 ,0,0,1.42895354905,0.7291996892
8103, ZIFLOS , O=N(=O)c1ccc(cc1)N(c1ccccc1)c1ccccc1 , Pbca ,1,0,1.33659023664,0.69441066449
8104, NUQPOF , Oc1c2C(=O)c3c(O)c(cc(c3C(=O)c2c(cc1N(=O)=O)N(=O)=O)N(=O)=O)N(=O)=O , P21/c ,1,0,1.8411022422499999,0.7418322482879999
8105, OMOMIM , NC(=NOC(=O)c1ccccc1)c1ccccc1O , P21/n ,0,0,1.40283342796,0.703428428428
8108, HAVYUY , CC1(C)OC2OC(C3CC(=NO3)c3ccccc3)C3OC(C)(C)OC3C2O1 , P21 ,0,0,1.2730837473999999,0.672546848928
8109, QAKGEQ , CC(=NO)C(C)=NCCN=C(C)C(C)=NO , P21/n ,0,0,1.2636054242,0.693759071118
8110, RORKEQ , CON=C1c2ccc3OC(=C(c4ccccc4)c3c2C(=NOC)c2ccc3OC(=C(c4ccccc4)c3c12)c1ccccc1)c1ccccc1 , C2/c ,1,1,1.29941201269,0.669512111439
8111, KOSLUZ , CC(=O)OCC1OC(OC2CC(C)(C)N([O])C(C)(C)C2)C(OC(C)=O)C(OC(C)=O)C1OC(C)=O , P212121 ,0,0,1.2205489326,0.661155913978
8113, BAZPOI , CN(C)c1ccc(c(N)c1)N(=O)=O , P21/c ,1,0,1.3585244691799998,0.6945194515049999
8114, HEBZOF , O=C1OC(C=C1)C(CC(=O)c1cccc[n+]1[O-])c1ccccc1 , P212121 ,0,1,1.35957737016,0.686547827173
8115, CAVDUB , COc1ccc(cc1)C=C(C)C(=O)C=Cc1ccc(cc1)N(=O)=O , P21/c ,1,0,1.32325232366,0.694654654655
8116, CUCCAF , CC(C)(C)C#CCN1C(=Nc2ccccc12)C=[N+]([O-])C1CCCCC1 , P21/c ,1,0,1.17678000662,0.6717669794589999
8117, YAGYIO , None , P21/n ,0,0,1.3518237583700001,0.664104828372
8118, ERSTND , COc1c(CCCOC(=O)c2cc(cc(c2)N(=O)=O)N(=O)=O)c2OC(C)(C)C=Cc2c2OC(C)(C)C=Cc12 , P-1 ,1,1,1.3182509284200001,0.662155338953
8121, DAYYIO , O=C(NCc1ccccc1)C1(C#N)C(C1c1ccc(cc1)N(=O)=O)c1ccccc1 , P21/n ,0,0,1.28964563848,0.7065584854629999
8122, WIGVEP , O=N(=O)c1ccc(C=CC=Nc2cccc3ccccc23)cc1 , P21/c ,1,1,1.33176939155,0.6928266178270001
8123, WUVQIP , COC(=O)C1=C2N(C=Cc3ccccc23)C(=C1)C(=O)C1=[N+]([N-]OC1=O)c1ccccc1 , P21/n ,0,0,1.43799103973,0.698298592008
8124, MNABTZ10 , C[N+]1=Nc2ccccc2C(=N1)[N-]c1ccccc1N(=O)=O , P21/c ,1,0,1.40729409312,0.696287686672
8125, MOVQOE , O=N(=O)c1ccc(Cc2ccccc2NCCN(CCNc2ccccc2Cc2ccc(cc2)N(=O)=O)CCNc2ccccc2Cc2ccc(cc2)N(=O)=O)cc1 , P-1 ,1,1,1.2895428262200002,0.6721212801340001
8126, FOLQON , CC12CC(=O)OC1c1c(O2)ccc2cccc(c12)N(=O)=O , P21/c ,1,1,1.51863833159,0.722618248656
8127, UJAVUX , C=C1C=CCC2CCCCC12OC(=O)c1ccc(cc1)N(=O)=O , P21/c ,1,1,1.25499052117,0.6477776009139999
8128, FINMEU01 , OC(=O)c1cc(cc(c1c1c(cc(cc1N(=O)=O)N(=O)=O)C(O)=O)N(=O)=O)N(=O)=O , P21/c ,1,0,1.71594069472,0.7096964919200001
8129, FURDOX10 , ON=CC1=CC=CO1 , P21/c ,1,0,1.37445714368,0.680408163265
8130, KUBPUS , O=N(=O)N1CCCCNC1=C(N(=O)=O)N(=O)=O , C2/c ,1,0,1.59705011398,0.6963736714200001
8131, UHOQOY , CCN(CC)C=CC1=N([O])C(C)(C)C(C)(C)N1[O] , P21/n ,0,0,1.17096738342,0.6789149713089999
8132, IBOGIS , COc1cc(CC(O)C(C)=O)c(cc1OC)N(=O)=O , P21/n ,0,0,1.4286581468000001,0.71412616593
8133, KAPNUN , CN(CCO)C(=O)c1ccc(cc1)N(=O)=O , P21/n ,0,0,1.41110034826,0.710193838699
8134, SEQQAJ , CN1C(=O)CC(C(C#N)c2ccccc2N(=O)=O)C1=O , P21/c ,1,1,1.49813549614,0.7358664955069999
8135, RAKWIJ , O=N(=O)c1ccc(c(c1)N(=O)=O)C12c3ccccc3c3cccc(c4ccccc14)c23 , P21/c ,1,0,1.3925554850200001,0.669372964543
8136, SOXBUC , C1CCC2(C1)CC(=NO2)c1ccccc1 , P212121 ,0,0,1.21259356029,0.700931493762
8137, QAWGUQ , COc1ccc(cc1)C1(OCCCO1)c1ccc(cc1)N(=O)=O , P21/a ,0,0,1.3673180447600002,0.708376315247
8138, CACTAE , CON=C1CCC2(C)C(CCC3=C2CCC2(C)C(CCC32C)C(C)CCCC(C)C)C1(Cc1ccc(cc1)C(=O)OC)Cc1ccc(cc1)C(=O)OC , C2 ,0,1,1.11842295103,0.640687150516
8139, TMXPYP , CC1(C)CC(CO)C(C)(C)N1[O] , P21 ,0,0,1.1510519779000001,0.690789096126
8140, WUDNAM , CC(=O)NN=C(C=NO)c1ccccc1 , C2/c ,1,0,1.32914280702,0.6817982456139999
8142, TNIOAN01 , Nc1c(cc(cc1N(=O)=O)N(=O)=O)N(=O)=O , P21/c ,1,0,1.83023418515,0.7641633728589999
8144, HULVUF , None , P21/c ,1,0,1.27548633565,0.6749173156939999
8145, DAJVUG01 , C1COC2=NON=C2N=NC2=NON=C2O1 , Pbca ,1,0,1.66034170655,0.704340011169
8146, OXAKUV , C=CN1C(=CC2=C1CCCC2)C#CC#CC#CC#Cc1ccc(cc1)N(=O)=O , P21/c ,1,1,1.3335425325299999,0.720681063123
8147, LIVJEF01 , CC1=C2C(=O)NC=CC2=NO1 , Pbca ,1,0,1.5034128558700002,0.7209869593770001
8148, POBTEF10 , OC(=O)CCC(=O)OC1CC2CC1C(C2c1ccccc1)(C(=O)c1ccccc1)N(=O)=O , C2/c ,1,1,1.34969717863,0.676125194937
8149, TIHXOZ , COCOC1(C)C(O)(CO)C(Nc2ccccc2)C(OC(=O)c2ccc(cc2)N(=O)=O)C21N=C(OC2C)c1ccccc1 , C2 ,0,0,1.26704385543,0.743592278719
8150, EVULOW , Cc1ccc(cc1)C(c1ccc(C)cc1)=C(N(=O)=O)N(=O)=O , Pca21 ,0,0,1.3285319981200001,0.6650473265219999
8151, JIPDOC , COC12CC(C)C(C=NO)C3CCCC(CO1)C23COCc1ccccc1 , P-1 ,1,1,1.29026455358,0.7154579222990001
8152, LUGBAR , Cc1cc(cc(C)c1N=C(C)c1cccc(n1)C(C)=Nc1c(C)cc(cc1C)N(=O)=O)N(=O)=O , P21/c ,1,1,1.2779252342799998,0.662611506057
8153, YUMBUE , CCOC(=O)C1=CCC(C(C1c1ccccc1)N(=O)=O)c1ccccc1 , P21/c ,1,0,1.28750719279,0.672209975377
8154, PUNLIV , CC(C)(C)N=[N+]([O-])C(C#N)[N+]([O-])=NC(C)(C)C , P21/n ,0,1,1.21571810696,0.6770224297990001
8157, WUBGOP , None , P-1 ,1,1,1.65350481108,0.7560482839749999
8158, CIGSUJ , O=N(=O)OCC1=NC(=NO1)C1=NOC(=N1)CON(=O)=O , P-1 ,1,1,1.8320370729700002,0.740537634409
8159, BEMZID , COc1ccc(COc2ccc(c(COc3cc(C=O)ccc3OC)c2)N(=O)=O)cc1OCc1ccccc1 , P-1 ,1,1,1.38201385778,0.7070707070710001
8160, POHJIH , CC(C)(C)OC(=O)N1C(=O)C(C(CCc2ccccc2)CN(=O)=O)(c2ccccc2)c2ccccc12 , P212121 ,0,0,1.28884291838,0.685315891838
8161, RISFEF , Oc1cc(C=CC(=O)OCCc2ccccc2)cc(c1O)N(=O)=O , P21/c ,1,0,1.39956316626,0.686284643056
8162, HAWMOI , CC1(C)c2ccccc2N2Cc3cc(ccc3OC12C)N(=O)=O , P21/n ,0,0,1.311667194,0.678610578241
8163, TUGXID , CC1=C2CC(ON3CCc4ccccc4C3C2=C(O1)c1ccccc1)c1ccccc1 , P21/n ,0,0,1.2784628572499999,0.6840845779989999
8165, VIKWAN , CC1(C)C(C)(C)C1(C(N)=O)N(=O)=O , P21/n ,0,0,1.29383796309,0.690430345624
8168, ETOGOJ , CC(=O)c1ccc(NN=Nc2ccc(cc2)N(=O)=O)cc1 , C2/c ,1,0,1.38746089782,0.6863195596089999
8169, TUZNUZ , CCOC(=O)C1(CCC=C1C)C(C)=NNc1ccc(cc1N(=O)=O)N(=O)=O , P-1 ,1,1,1.36327404531,0.66975308642
8170, XOCYUK , COC(=O)C1(OC1c1ccc(cc1)N(=O)=O)C(=O)OC , P-1 ,1,1,1.5086390881600003,0.724494475714
8172, MIFLEV , CN1c2c(ccc(c3ccncc3)c2C(C)(C)C21Oc1ccc(cc1C=C2)N(=O)=O)c1ccc(c2ccncc2)c2c1N(C)C1(Oc3ccc(cc3C=C1)N(=O)=O)C2(C)C , P21/c ,1,0,1.32961286129,0.675254368989
8173, CEKKIM , CC(C)(C)OOC(=O)c1ccc(cc1)N(=O)=O , P-1 ,1,1,1.28538024301,0.674192799071
8174, IROYUK , COc1ccc(cc1)C1C(C(NC21C(=O)Nc1ccccc21)c1ccccc1)N(=O)=O , I2/a ,0,0,1.3496835228,0.6777308497579999
8176, WIKBAT , OC(=O)C=CC1=CC=C(O1)N(=O)=O , P21/n ,0,1,1.61470761032,0.7314677843520001
8177, WACTAX , CC1CCCN(C1)C(c1cccc(c1)N(=O)=O)c1c(O)ccc2ccccc12 , Pbca ,1,0,1.2564207470200002,0.663229665072
8178, RAJHAL , CC(Nc1ncc(cc1C)N(=O)=O)c1ccccc1 , P212121 ,0,0,1.27972757206,0.677591036415
8179, NIHBIR , COc1ccc(cc1)C1=[N+]([O-])C(C)(C)CC1 , P21/c ,1,0,1.26161523832,0.702725492329
8181, PIGPOK , CC(=O)OCC1ON2N=NN=C2C(OC(C)=O)C(OC(C)=O)C1OC(C)=O , P212121 ,0,0,1.4082751073100002,0.6572832001650001
8182, XIKMUC , COC(=O)C=C(ON1C(=O)C2C(C3c4ccccc4C2c2ccccc32)C1=O)C(=O)OC , P-1 ,1,1,1.44988310449,0.712608757667
8183, KAZZIW , ON=C(C#N)c1cccnc1 , P21/c ,1,1,1.3995449175299999,0.6888616891060001
8184, ODIJER , CC(C)(C)OC(=O)N1C(=O)C2CC(ON2C21CCCCC2)c1ccccc1 , P21/c ,1,0,1.23226266298,0.66321953224
8186, TIDPAX , OC12CCC(=NOCC#CCCC#C1)CC2 , P21 ,0,0,1.2659103943799999,0.6962135067399999
8187, GAZCER , COC(=O)c1cc(C2=CC=CN2C)n([O])cc1C(=O)OC , C2/c ,1,0,1.3612036859299999,0.677273833671
8188, IFUQAE , CC1(C)c2ccccc2N(CCOC(=O)c2ccncc2)C21Oc1ccc(cc1C=C2)N(=O)=O , P21/c ,1,0,1.35438394579,0.6937334632100001
8189, MINGAR , CCOC(=O)C1C(C2C(=O)ON1C2(C)C(=O)OC1CC(C)CCC1C(C)(C)c1ccccc1)c1ccccc1 , P21 ,0,0,1.21904514136,0.650846681922
8190, TAGZEJ , COC(=O)C1(CCCC2CC1N(C)O2)c1ccccc1 , C2/c ,1,0,1.27431435796,0.694822154472
8191, SUKZII , CCOC(=O)C1ON2OC(C3C2C1Oc1ccccc31)C(=O)c1ccccc1 , P-1 ,1,1,1.3638536102599998,0.6721273543430001
8192, MILFOE , CC(=O)ON1C(=O)C(c2ccccc2)C(C)(NC(=O)c2ccccc2)C1=O , P212121 ,0,0,1.3739138116499998,0.6968126063210001
8193, HMNHKT , Cc1cc(cc(c1O)C(=O)C1CCCCC1)N(=O)=O , B112/b ,0,0,1.33503754492,0.7006191601940001
8194, IGAQIR , CN1N(C(=O)C(=C1C)N=Cc1cccc(OCc2ccc(cc2)N(=O)=O)c1)c1ccccc1 , P-1 ,1,1,1.32578933829,0.672617058852
8195, VOZHAT , CC(C)(N(=O)=O)N(=O)=Nc1ccccc1N(=O)=O , P21/n ,0,0,1.48943733451,0.711040719082
8196, UTADAW , CON=C(C)C1(ONC(C)=O)C(=NN(C1=O)c1ccccc1)C , Cc ,0,0,1.3044671401899999,0.666745727241
8197, KEZHAY , CC1(C)CC2(CC(C)(C)c3ccc(cc23)C2=[N+]([O-])C(C)(C)C(C)(C)N2[O])c2cc(ccc12)C1=[N+]([O-])C(C)(C)C(C)(C)N1[O] , C2/c ,1,1,1.1885243217700001,0.655699629825
8198, WEKHOM , CN1C=C(C(=O)C2=C(c3ccccc3OC(=O)c3ccc(cc3)N(=O)=O)c3ccccc3N2C)c2ccccc12 , P21/n ,0,0,1.31461916914,0.662471034337
8200, YUFRUO , CC(COC(=O)NN(=O)=O)(N(=O)=O)N(=O)=O , P21/c ,1,0,1.74461226723,0.72300170068
8201, XOCNUA , NC1=C(N(NCC(N(=O)=O)(N(=O)=O)N(=O)=O)N=C1N(=O)=O)N(=O)=O , Pbca ,1,0,1.83789636652,0.7263488003899999
8202, EPNBCH10 , CC(OC(=O)c1ccc(cc1)N(=O)=O)C=CC12OC(CC1(C)C)CC2(C)O , P-1 ,1,1,1.25127349268,0.669177145981
8203, VAKJUM , CC1=C(C)N([O])c2ccccc2N1[O] , Pbca ,1,0,1.41232842003,0.721324245375
8204, MAYTAI , O=C(ON=C1CCCCC1)C1=CC=CO1 , Pna21 ,0,0,1.30234145838,0.685122855508
8206, CEFGID , CC(=O)NC(Cc1ccccc1)C(=O)Nc1ccc(cc1)N(=O)=O , P-1 ,1,1,1.30880931876,0.655346650999
8207, HMBQOX10 , CON([O])=C1C=C(O)C(=O)C(=C1O)C , P-1 ,1,0,1.5756126124899998,0.770437461285
8208, COWXUI , OC(=O)c1cc(O)cc(O)c1N(=O)=O , P21/c ,1,0,1.77399358758,0.7654416363169999
8209, WORWOP , CCOC(=O)C1(CCC(C)(C1CC(C)=O)N(=O)=O)C#N , P-1 ,1,0,1.5520723238,0.7032188968880001
8210, LAGTIX , CC(=O)ONC(=O)c1ccccc1 , Pbca ,1,0,1.3487629879799998,0.6939979419490001
8211, MQAZOX , Cc1nc2ccccc2cn1[O] , P-1 ,1,1,1.39854780861,0.720690993789
8212, RUHHEH , [O]n1cccc(C(O)=O)c1c1c(cccn1[O])C(O)=O , C2/c ,1,1,1.63784435538,0.733436853002
8213, UBURER , ON=C1CC(NC(C1Cc1ccccc1)c1ccccc1)c1ccccc1 , P21/c ,1,0,1.21257902206,0.665419326436
8214, GUCMUN , CN1C(=O)N(C)C2=C(C1=O)C(CN(=O)=O)(OC(=C2)c1ccccc1)c1ccccc1 , P21/n ,0,0,1.44214098526,0.7201643010969999