ID,name,smiles,space_group,inversion_symmetry,beta_packing,density,packing_coefficient
3009, HALMAJ , CC1(CCC(=N1[O])N)C(N)=O , P212121 ,0,0,1.39062302801,0.7078615569660001
3010, URIZAY , C=CCN1C2ON=C(CC2(CC=C)c2ccccc12)c1ccccc1 , P-1 ,1,1,1.23434821407,0.684937888199
3011, VELQEK , O=N(=O)c1ccccc1c1nc2ccccc2c(n1)c1ccccc1 , P-1 ,1,1,1.37470795417,0.689766524471
3012, SAFJAL , CC1(C)N([O])C(=[N+]([O-])C1(C)C)c1ccc(cc1)N=[N+]=[N-] , P21/c ,1,0,1.34152296195,0.6923809523810001
3013, VOZHAT10 , CC(C)(N([O])=Nc1ccccc1N(=O)=O)N(=O)=O , P21/n ,0,0,1.48943733451,0.711081329868
3014, TIVWIE , O=NN(C12CCC(CC1)C2)C12CCC(CC1)C2 , C2/c ,1,0,1.2298906859899998,0.695337504601
3015, NEMRAY , COc1cccc(C=NOCCON=Cc2cccc(OC)c2O)c1O , P21/n ,0,0,1.42588105175,0.728331153734
3016, QAWMUW , COC(=O)CC1=CC(=NN1c1ccc(cc1N(=O)=O)N(=O)=O)C , P21/n ,0,0,1.46371714225,0.650221773447
3018, POCVOU , CN1OC(C)(C)CC1(CN(=O)=O)C1COC2(CCCCC2)O1 , P212121 ,0,0,1.2305733565299999,0.649153244363
3019, AHEQUZ , CCN(C(=O)CCc1ccccc1)c1ccccc1NCC1=CC(=NO1)c1ccccc1 , P-1 ,1,1,1.22821449649,0.665228017884
3021, MUTSAW , OCCN1CCNC1=CN(=O)=O , P21/n ,0,0,1.4746605651299998,0.725994005994
3022, CAWWAZ , CC(C)(C)OC(=O)CN(c1ccccc1)c1ccc(c(Nc2ccccc2)n1)N(=O)=O , P21/c ,1,0,1.3194308507299999,0.683271298594
3023, TIVQEV , Cc1ccc(NC(=O)Nc2ccc(cc2)N(=O)=O)cc1 , Fdd2 ,0,0,1.39365667616,0.696737588652
3024, EHECAV , COC1CCC(CC1)(OC(=O)c1ccc(cc1)N(=O)=O)C#N , P21/n ,0,1,1.3198851022700002,0.6574091141830001
3025, GAVZUA , CC1(C)C2COC(c3ccccc3)C12N(=O)=O , P21/c ,1,0,1.3284858191700002,0.7015175933390001
3026, GAPKIT , Cc1ccc(cc1)C1C2CCCN2C2(C(=O)Nc3ccccc23)C1(CO)N(=O)=O , P-1 ,1,1,1.31877324966,0.668153256705
3027, TMANIA10 , C[N+](C)(C)[N-]N(=O)=O , Pnma ,1,0,1.35489417409,0.72968058191
3028, FOVXIY , CC(=NOCCCON=C(C)c1ccc2ccccc2c1O)c1ccc2ccccc2c1O , P-1 ,1,1,1.31281858123,0.685534348692
3029, ABEQIK , O=C(N1C2CCCCC1(C2)c1ccccc1c1ccc(cc1)N(=O)=O)c1ccccn1 , P21/c ,1,0,1.3592450185799998,0.7249045691150001
3032, GEGFAA , Cc1ccc(cc1)C1=Cc2c(cccc2N(=O)=O)C(=O)O1 , P21/n ,0,1,1.43729873546,0.705963922675
3033, EVIKIE , CC1(C)OC2OC3C(OCC3(O)CN(=O)=O)C2O1 , P212121 ,0,0,1.4498477862799999,0.6922914100990001
3034, QATZOD , O=C1N(Nc2ccc(cc2)N(=O)=O)C(=O)c2ccccc12 , P212121 ,0,0,1.56296796139,0.7352056042470001
3035, WEVVUP , O=C1N(OCc2ccccc2)C(=O)N(OCc2ccccc2)C(=O)N1OCc1ccccc1 , P-1 ,1,1,1.3838776522,0.703906578394
3036, LEGZAB , O=N(=O)C1=NN2CCCN3N=C(C(=C3NC2=C1N(=O)=O)N(=O)=O)N(=O)=O , P21/c ,1,0,1.8063747134,0.7453043848450001
3037, MEBDAA , CC1CCC(O1)C(C(CN(=O)=O)c1ccccc1)C(O)=O , P21/c ,1,0,1.3402729406899998,0.6998759305210001
3039, NAXPEJ , CC1(C)Nc2ccccc2C(=O)N1N=Cc1cccc(c1)N(=O)=O , P21/c ,1,0,1.33064167197,0.663362504366
3041, XICJOJ , CNC1=C(C(c2ccccc2OC(C)=O)c2ccccc2O1)N(=O)=O , C2/c ,1,0,1.4156168141499998,0.698136044541
3043, AXEQEA , COc1ccc(cc1)C1CC1c1cccc(c1)N(=O)=O , P21/c ,1,1,1.3578398289200002,0.714122794768
3044, PABRUG , COC1=C(C(=O)CCC1)C(=O)c1ccccc1N(=O)=O , Pbca ,1,0,1.39170583095,0.687731392067
3045, NISGOL , CN1N=C(C(=[N+]1[O-])N(=O)=O)N(=O)=O , Pcab ,0,0,1.9041951063299998,0.766803051613
3046, FACSEH , O=C(OCCCC1CCC(OCc2ccccc2)C2(CCCCO2)O1)c1ccc(cc1)N(=O)=O , P21/a ,0,0,1.27620805561,0.666008692846
3047, DAPJAG , O=N(=O)c1ccc(OCC2CC2)cc1 , P21/c ,1,1,1.37608946768,0.71467784749
3048, LIPJOL , O=N(=O)c1ccccc1C1Nc2ccccc2C2OCCCC12 , P-1 ,1,1,1.3732968307700002,0.6981706262749999
3049, NBZOAC03 , OC(=O)c1ccc(cc1)N(=O)=O , A2/a ,0,0,1.6112677438799998,0.7473317480509999
3050, NILQEG , O=N(=O)c1ccc(c2ccccc2)c2ccccc12 , Cc ,0,0,1.3724016588499999,0.706083808167
3051, EPATAR , CN1C(=O)NC(c2cccc(c2)N(=O)=O)C2=C1C=NNC2=O , P-1 ,1,1,1.57551032861,0.7340071877809999
3052, NEGLUG , CON=C1C=CC2=C(C)C3C4C(C(=O)N(C)C4=O)C2(C2C3C(=O)N(C)C2=O)C1=O , P212121 ,0,0,1.38884168405,0.6200351422029999
3054, WANBUL , CCC1=C2NC(=C1CC)C=C1[N+](=C(C=C3NC(=CC4=NC(=C2)C(=O)C4(CC)CC)C(=C3CC)CC)C(=C1CC)CC)[O-] , P21/n ,0,0,1.0991599789700002,0.621176046176
3055, JOWWIB , NC1=NC(=NN1)N(=O)=O , C2/c ,1,0,1.8187944561099998,0.7567292644760001
3056, NTRANT , O=N(=O)c1c2ccccc2cc2ccccc12 , P21/a ,0,1,1.38859594242,0.663996948894
3061, WOFJUX01 , O=N(=O)CC(C(C(CN(=O)=O)c1ccccc1N1CCCCC1)N(=O)=O)c1ccccc1N1CCCCC1 , P-1 ,1,1,1.2888674041200001,0.6664395622829999
3062, DAPHOS , O=C(OCC1CC1)c1cc(cc(c1)N(=O)=O)N(=O)=O , Pna21 ,0,0,1.49137780397,0.710667600373
3063, BZOCYX10 , O=N(=O)C(ON=C(C#N)c1ccccc1)(C#N)c1ccccc1 , P21/n ,0,0,1.34295350408,0.666924987581
3064, YEQHUX , CCOC(=O)C(O)C(NC(=O)OCc1ccccc1)c1cccc[n+]1[O-] , P21/c ,1,0,1.3442671312999999,0.6741273432449999
3065, QUKCUW , O=C(Cc1ccc(cc1)N(=O)=O)OC1CCCCCCCCCC1 , P21 ,0,0,1.26268893402,0.7230762549940001
3068, RIPNAF , CC1CC2(CCCC2=NNc2ccc(cc2N(=O)=O)N(=O)=O)OC1C , Pbca ,1,0,1.35005237718,0.672983354673
3069, KEZTAM , COc1cc(OC)c(C2CC(CCC2C)OC(=O)c2ccc(cc2)N(=O)=O)c(OC)c1 , C2/c ,1,1,1.24898860866,0.648716717909
3070, SEVGOP , O=N(=O)OC1C(c2ccccc2c2ccccc12)N(=O)=O , Pbca ,1,0,1.4692444126800002,0.701009114583
3071, BUVVAP , CC(C)(C)C1CCCCC(C1)=NNc1ccc(cc1N(=O)=O)N(=O)=O , P-1 ,1,1,1.3149130145399999,0.70882852292
3072, YAVNER , CC1=NOCCCCCCCCNc2ccccc2C(=NOCCCCCCCCNc2ccccc12)C , Cc ,0,0,1.17490727624,0.682222328896
3073, MEWTUF , COc1ccc(cc1)C1CN(C)CC1(CO)N(=O)=O , P21/c ,1,0,1.2808185112100001,0.6604440505020001
3074, OCHTET01 , O=N(=O)N1CN(CN(CN(C1)N(=O)=O)N(=O)=O)N(=O)=O , P21/c ,1,0,1.89368079745,0.730913026368
3075, AYUQAM , CC1=NN(CC(=O)Nc2ccccc2N(=O)=O)C(=C1)C , P-1 ,1,1,1.37902714872,0.689612855423
3076, TIGVOX , COC(=O)C(C1C(CC2=CN(Cc3ccccc3)c3cccc1c23)N(=O)=O)C(=O)OC , P212121 ,0,0,1.2999436203399999,0.647944678938
3077, LUYZOV , COC(c1ccccc1)C1=C(OC2=C1C(CC(C2)(C(=O)OC)C(=O)OC)=Cc1ccc(cc1)N(=O)=O)c1ccccc1 , P-1 ,1,1,1.31754626505,0.65994533571
3078, ROHGAY , OC(C1CCCCC1)C1CCCCC1OC(=O)c1ccc(cc1)N(=O)=O , P21/c ,1,0,1.30128078033,0.694617469252
3079, VAKNEB , CC(C)(C)C1=CC2(C)CC(ON2)(O1)C(C)(C)C , P21/n ,0,0,1.07741457515,0.655785729232
3081, HECLAE , CN1C=C(C=N1)N(O)C(C)(C)C , P21/n ,0,0,1.1325817664,0.6368969810149999
3082, BODMEM , Cc1cc(O)c(cc1N(=O)=O)C(=O)C1CCCCC1 , P21 ,0,0,1.3232716522799999,0.681943665133
3083, FENPIX01 , O=C(Nc1ccc(cc1N(=O)=O)N(=O)=O)c1ccc(cc1)N(=O)=O , P21/n ,0,0,1.60153135976,0.7136640847579999
3084, AREFIO , CC1(OC1c1ccccc1)N(=O)=O , P212121 ,0,0,1.34454844479,0.685362293956
3085, CUDBEJ , CC(=NO)C(=O)NN=Cc1ccccn1 , P21/c ,1,0,1.4339292381600002,0.728214362668
3087, GUCQOM , CN(C)c1ccc(c(Nc2ccccc2)c1)N(=O)=O , P21/c ,1,1,1.3552323206999999,0.71378886596
3088, SIHDIX , COc1cc(OC)cc(c1)C(N)=NO , P-1 ,1,1,1.3509529246399998,0.689825080069
3089, LANWUU , O=C(NN=Cc1cccc(c1)N(=O)=O)c1ccc(cc1)N(=O)=O , P21/c ,1,1,1.4517763815600002,0.679214682032
3090, POZPAW , ON(C(=O)C1CCCCC1)c1ccccc1 , P212121 ,0,1,1.2666960564899998,0.6950837659899999
3091, PAZCUP , COC(=O)C1=C(C)NC(=C(C1c1ccccc1N(=O)=O)C(=O)OCC(C)=O)C , C2/c ,1,0,1.39345127417,0.693199047
3092, MUQZEF , COc1ccc(cc1)C(=O)C1=NN2c3cc(ccc3N=C2C(=C1)C(=O)c1ccccc1)N(=O)=O , P21/c ,1,0,1.43095132602,0.6868084672720001
3093, ETATAU , CC1CCC2C(COC(=O)c3cc(cc(c3)N(=O)=O)N(=O)=O)C3(C)CCC12C=C3 , P212121 ,0,0,1.3173173591399998,0.666554714216
3094, FONYUD , CC(C)C1C2NC3(C4CCC(C)(C3OC2=O)C4(C)C)C1N(=O)=O , P212121 ,0,0,1.267950468,0.6727117745990001
3095, UMIJOP , OC1CCC(OC(=O)c2cc(cc(c2)N(=O)=O)N(=O)=O)C2CCC1O2 , P21 ,0,1,1.5396106652700001,0.728849037132
3096, SAWMIO , O=C1CCCC2=C(ON=C12)N(=O)=O , Pbca ,1,0,1.5283606380599999,0.689606412857
3097, SUFZOI , O=N(=O)c1cc2OCCOCCOCCOCCOc2cc1N(=O)=O , P21/n ,0,0,1.4448814382700002,0.621573440355
3099, KOLVIS , NC(=O)NNC(=O)c1ccc(cc1)N(=O)=O , P21/c ,1,0,1.5421427835600001,0.697678703021
3100, NITOLU01 , Cc1ccc(cc1)N(=O)=O , Pbca ,1,0,1.3532318244200001,0.7049424005949999
3102, VOPZIJ , CC1=CN2C=CC=CC2=C1N(=O)=O , P21/n ,0,0,1.4392435222600002,0.733022548436
3103, NOEURA01 , O=C(NCC(N(=O)=O)(N(=O)=O)N(=O)=O)NCC(N(=O)=O)(N(=O)=O)N(=O)=O , Pnn2 ,0,0,1.89074472262,0.749460188934
3104, YAWFUZ , O=C(C=Cc1cccc(c1)N(=O)=O)c1ccc(cc1)N1CCCCC1 , Pbca ,1,0,1.3393540269600002,0.712503614166
3105, PUBMUU02 , O=N(=O)N1C2C3N(C1C1N(C(C(N3N(=O)=O)N1N(=O)=O)N2N(=O)=O)N(=O)=O)N(=O)=O , P21/n ,0,0,2.04367423452,0.7632261970569999
3106, POHHEA , NC1=C(C#N)C(C(C(c2ccccc2)C1(C#N)C#N)N(=O)=O)c1ccccc1 , P21/n ,0,1,1.3086592915200002,0.661813246591
3107, TICKIC , O=N(=O)C1=CC(=NN1C(N(=O)=O)(N(=O)=O)N(=O)=O)N1C=NN=N1 , P212121 ,0,0,1.8184273788999998,0.7037451737450001
3108, DUHPIF , CC1(O)C=C(c2ccccc2)C(=O)C(C1N(=O)=O)(c1ccccc1)N(=O)=O , P21/c ,1,0,1.37150103144,0.669975272222
3109, ERIKIB , CC1CCOC2OCC(CC12)=NNc1ccc(cc1N(=O)=O)N(=O)=O , P21/c ,1,0,1.49325048276,0.730857648099
3110, TMAZPX , CC1(C)CC(=NO)C(C)(C)N1[O] , P21/c ,1,1,1.16414123829,0.561709601874
3111, TIWDEI , CCOC(=O)COC1CCN(CC1)C(=O)C(C)NC(=O)c1ccc(cc1)C(N)=NO , P21 ,0,1,1.3554508738,0.69907020638
3113, DNTNAP02 , O=N(=O)c1cccc2cccc(c12)N(=O)=O , P212121 ,0,0,1.5516482513699998,0.7408931812289999
3114, BANFIG , NNC(=O)c1cccc(c1)N(=O)=O , P212121 ,0,0,1.51552579424,0.73571566358
3115, KOVHAE01 , O=N(=O)C(=C1NCCN1)N(=O)=O , C2/c ,1,1,1.6926201592399999,0.72599463241
3116, BIWZOX , Cc1cc(C)c(NN=C(N=Nc2c(C)cc(C)cc2C)N(=O)=O)c(C)c1 , P-1 ,1,1,1.2554937386,0.675926532097
3118, XAKWOV , CC(OC(=O)c1ccc(cc1)N(=O)=O)C1OC(c2ccccc2)(c2ccccc2)C1(C)C , P21/n ,0,0,1.26885245759,0.663864790181
3119, SIBFOZ , CC(C)C1CCC(C)CC21N(C)C(=O)C1CC(ON21)C(C)O , P43 ,0,0,1.18737037874,0.663947932114
3120, ITINEE , OC(=O)C1=CN(CC(CN2C=C(N=N2)C(O)=O)(N(=O)=O)N(=O)=O)N=N1 , C2/c ,1,0,1.7816474421700002,0.749866317455
3121, BAQNEM , CC(=O)CC(C(C(OC(C)=O)c1ccccc1N(=O)=O)N(=O)=O)c1ccccc1 , P21/n ,0,0,1.31607632032,0.6571030512730001
3122, EVOFEA , COC(=O)C1(C)CCCC2(C)C1CCC13CC(=NO)C(C)(CCC21)C3 , C2 ,0,0,1.19493756765,0.670747543651
3123, QONWOH , COc1ccc(cc1)C1=C(C(=O)C(=C1c1cccc(c1)N(=O)=O)c1ccccc1)c1ccccc1 , P21/c ,1,0,1.36741569521,0.709824915825
3124, OFUKOR , CON1N=Nc2c1c1N=NN(OC)c1c1N=NN(OC)c21 , P21/c ,1,0,1.54994963824,0.688915566226
3125, OVIVEW , COCC12CC3(OC(=O)c4ccc(cc4)N(=O)=O)C=CC4C=CC1C2CC34 , Pna21 ,0,0,1.38929958766,0.7095680002850001
3126, FEWLUO , CCN(CC)C(=O)C(C)=C(C=NO)c1ccccc1 , P21/c ,1,0,1.15898533769,0.6580498866210001
3127, EVIYAL , CCOC(=O)C1=C(C)NC(=C(C1C1=CC(=NO1)c1ccccc1OC)C(=O)OCC)C , Pbca ,1,0,1.25309096151,0.662405145674
3128, VOHYAT , CCOC(=O)c1cc(ccc1NN=Cc1ccc(cc1)N(C)C)N(=O)=O , P21/c ,1,0,1.38058823843,0.709279588336
3129, IGEDIJ , CC1CC2Oc3cccc(c3CC=CC2N1C(=O)OC(C)(C)C)N(=O)=O , P212121 ,0,1,1.2759011093100001,0.664069264069
3130, NERNII , OC1CC(N(C1)N=O)C(O)=O , P212121 ,0,0,1.52614884344,0.699671268902
3132, WURTEI , CN1CCC(CC1)OC(=O)c1ccc(cc1N(=O)=O)N(=O)=O , P21/c ,1,1,1.44819818403,0.695395800988
3134, VETPAL , CC1CCCC(C)(C)C21Cc1cc(OC(=O)c3ccc(cc3)N(=O)=O)cc(C)c1O2 , P21/c ,1,1,1.23539882972,0.660841062636
3135, PEBBIJ , CC1(O)CC2CC(=O)C34C5CCN(O5)C3CCC24C(=O)C1 , P212121 ,0,0,1.39929131271,0.717794562616
3136, KECRUF , COc1ccc(O)c(c1)N(=O)=O , P21/c ,1,0,1.50591227868,0.730890688259
3138, HIRXOX , CC(C)(C)OC(=O)OCCNc1ccc(cc1)N(=O)=O , P21/c ,1,0,1.3385637694299999,0.691369146925
3139, GUFLUO , CC(=O)C(=NNc1ccccc1N(=O)=O)C#N , P21/n ,0,0,1.44336280725,0.6996432719429999
3140, GOTFOM , Oc1ccc(C=Nc2ccccc2)cc1N(=O)=O , Pna21 ,0,0,1.40326782926,0.704078248215
3142, GETFIU , None , P212121 ,0,0,1.718868309,0.724368739765
3143, OMUXEB , CC[N+](CC)(CC)Cc1cc(cc(C=O)c1[O-])N(=O)=O , P21/n ,0,0,1.29718497606,0.69350154675
3145, TUMYAD , O=C(OCC1CC(COC(=O)c2ccc(cc2)N(=O)=O)C2C1CC1OC21)c1ccc(cc1)N(=O)=O , P-1 ,1,1,1.4289876544,0.689721231338
3146, RUVTAD , OC1CCCCC1Nc1ccc(cc1)N(=O)=O , C2/c ,1,0,1.32813708032,0.695543113102
3147, FECPIP , CC1=CC(=NO1)CC1=Nc2cc(C)c(C)cc2N1CC=C , P21/c ,1,0,1.2460465811599999,0.6878848850679999
3148, YIZGUK , CCC(C)(C)c1ccc(OC)c(c1)C1C(C(ON1c1ccccc1)c1ccccc1)C(=O)C=Cc1ccccc1 , P21/n ,0,0,1.16560616207,0.6394127028800001
3149, GIYPAF , CC(=O)OCC(OC(C)=O)C(OC(C)=O)C(OC(C)=O)C(C=NNc1ccc(cc1)N(=O)=O)N=N=[N] , P21 ,0,0,1.34893133444,0.6503506538880001
3150, NIRJEE05 , Cc1cccc(C=NO)c1O , P21/c ,1,0,1.65930523468,0.855329311212
3151, CADBOA , CC1(C)N([O])C(C)(C)c2cc(ccc12)C1=CN(N=N1)C1=Cc2ccccc2OC1=O , P-1 ,1,1,1.33633767736,0.687692307692
3152, KAXJID , COC1(N=C(c2ccccc2)C(=N1[O])c1ccccc1)c1ccccc1 , Cc ,0,0,1.32491144035,0.706383822363
3153, ENUNEI , CCCCN1C(=NC(=C1c1cc(OC)c(OC)cc1C=O)N(=O)=O)C , Pbca ,1,0,1.3729326696700002,0.7174379106800001
3154, COWYET , OC(=O)c1cc(O)c(c(O)c1)N(=O)=O , P21/c ,1,0,1.7312767490599998,0.743635903919
3156, PAGNUJ , Nc1c(cc(c(N2C=NC(=C2)N(=O)=O)c1N(=O)=O)N(=O)=O)N(=O)=O , P21/n ,0,0,1.7301694355500001,0.7067838388169999
3157, OFEBAC , CCN(CC)C(=O)C(=Cc1cc(OC(=O)C(C)(C)C)c(O)c(c1)N(=O)=O)C#N , P-1 ,1,1,1.3461618159399997,0.700537101496
3158, ECEREL , CC(C)(C)OC(=O)C(c1ccc(cc1N(=O)=O)N(=O)=O)c1ccc(cc1N(=O)=O)N(=O)=O , P21/n ,0,0,1.46127267331,0.674081920904
3159, CENCEE , CC1(CCC=N1[O])C(=O)OCC1CCCCC1 , Pbca ,1,0,1.18319915726,0.667181581439
3161, KOBXOO , [NH2+]=C1NNC(=O)C1=N(=O)[O-] , P21/n ,0,0,1.8332346693900001,0.76180901594
3162, NASXEN , O=C1OC2(CCCCC2)OC(=O)C1=CNc1ccccc1N(=O)=O , P21/c ,1,0,1.42342292946,0.6879090730940001
3163, DOHCUY , Cc1c(C)c(c(c(c1C)N(=O)=O)C(C)(C)C)N(=O)=O , P21/n ,0,0,1.26664850926,0.6711153573399999
3164, TULGAK , Oc1ccc(cc1C=NC1=C(Nc2ccccc2C1=O)c1ccccc1)N(=O)=O , Fdd2 ,0,0,1.42498491074,0.697185329861
3166, PIPWUG , CCC=C1C=CC(=O)C(O)C21C(O)C(=C)N(OC)C2=O , P212121 ,0,0,1.37152339104,0.714314574315
3167, AZAFIQ , CC(N1C2CC(C=C2)C1COC(=O)c1cc(cc(c1)N(=O)=O)N(=O)=O)c1ccccc1 , P212121 ,0,0,1.3498666050900001,0.6712194055940001
3168, MINVOV , CC1(C)C(CCC2(C)C1CCC1(C)C2CCC2(C)C1CC2=O)OC(=O)c1cc(cc(c1)N(=O)=O)N(=O)=O , Cc ,0,0,1.28524733482,0.668925606641
3169, GORCOF , O=N(=O)c1ccc(cc1)N=Nc1ccc2cccccc12 , Pc ,0,0,1.4487756300799999,0.7474187862
3170, OTOFIN , Cc1ccc(Nc2cc(O)c(cc2N(=O)=O)N(=O)=O)cc1N , P21/c ,1,1,1.52339055993,0.7146237146240001
3171, LADLAG , CC1=CC(=C2C=C(C(=O)N12)c1ccccc1N(=O)=O)C , P-1 ,1,1,1.37084143877,0.6880735930740001
3172, COJXIK , CN1C=C(N=C1C=Cc1ccccc1)N(=O)=O , P-1 ,1,1,1.4106638232,0.7273315189569999
3174, XETZAZ , CCC1=NN2C=CC=C(C2=N1)N(=O)=O , P21/n ,0,0,1.5312119186700002,0.740417209909
3176, NIVZUP , CCOC(=O)C(CC1=CNc2ccccc12)=NO , P21/n ,0,0,1.30222872119,0.66857720627
3177, QONBIG , CON1C(=O)N2c3ccccc3C=C2C21C=CC(=O)C=C2 , P21/n ,0,0,1.3258580498299999,0.656170903191
3178, KASWUX , CC(C)CC(NC1=NC(=C(N=O)C(=O)N1C)N)C(O)=O , P212121 ,0,0,1.3826270384200001,0.685806932966
3179, DUYGEK , C[N+](C)([O-])CCCNC(=O)C(c1ccccc1)c1ccccc1 , P21/n ,0,0,1.22431683987,0.693690311798
3180, OGUGEC , COc1cccn([O])c1C(OC(C)=O)C(OC(C)=O)C(=O)OC(C)C , P41212 ,0,0,1.28267359274,0.647284347767
3181, KEDCUT , C=C1CCCC2CCCC(=NNc3ccc(cc3N(=O)=O)N(=O)=O)C12C#N , P21/n ,0,0,1.3796856605,0.683501683502
3182, KESNEB , CC(C)(C)N([O])=Cc1ccc(cc1N(=O)=O)N(=O)=O , C2/c ,1,1,1.38254473875,0.625036943894
3183, CIHGIJ , None , P21/n ,0,0,1.39923210386,0.705238455238
3184, LUKTAN , Oc1cc(c(C=Cc2c(cc(cc2N(=O)=O)N(=O)=O)N(=O)=O)c(c1)N(=O)=O)N(=O)=O , P21/c ,1,0,1.7511898145900002,0.746346153846
3185, MIMXOW02 , O=C(CN(=O)=O)c1ccccc1 , P21 ,0,1,1.4394242615200001,0.728033884949
3187, VUNJEV , CCOC(=O)C1=C(ON2C(=O)c3ccccc3C12O)c1ccc(OC)cc1 , P21/c ,1,0,1.40441611935,0.691250890948
3189, ILOFUM , CN(CN1N=C(N=C1N)N(=O)=O)N(=O)=O , P-1 ,1,1,1.6822671714300002,0.720965608466
3190, FUZRUP , CC1C(=C)C1(C)C(O)c1cc2OCOc2cc1N(=O)=O , P21/c ,1,0,1.37936509934,0.6962214372930001
3191, DUVVAS , COC(=O)C1(CC(=C)C2(CCCCC12)N(=O)=O)C(=O)OC , P21/c ,1,0,1.35968471018,0.68842320833
3194, JIDBON , O=N(=O)C1(CCCCCC1)C1(CCCCCC1)N(=O)=O , P21/n ,0,0,1.31675174786,0.705199883657
3195, SURSOP , COC1CCCCC1C(C=C(c1ccccc1)c1ccccc1)=NNc1ccc(cc1N(=O)=O)N(=O)=O , P-1 ,1,1,1.32555364438,0.682596371882
3196, REZNER , CN(N=Cc1ccc(cc1)N(=O)=O)C(=O)c1cnccn1 , C2/c ,1,1,1.4415758719799998,0.707192681532
3198, FIXPIL , Cc1ccc(cc1)[N+]1=NOC(=O)[C-]1C(C)=O , P212121 ,0,0,1.3317722081799999,0.675757575758
3199, EROFEX , Nc1cccc(c1N)N(=O)=O , P21/c ,1,0,1.5492552345299997,0.744467648918
3201, EZEGAS , COc1cc(cc(OC)c1OC)N=Cc1ccc(cc1)N(=O)=O , P21/c ,1,0,1.38490930015,0.69562722596
3202, NEYGIK , CC1=C(c2ccccc2OC(=O)c2ccc(cc2)N(=O)=O)C(C)(OC1=O)OC(=O)c1ccc(cc1)N(=O)=O , P-1 ,1,1,1.5029536605200002,0.715784277428
3203, NAWZER , COC(=O)C(Cc1ccc(OC)c(OCc2ccc(OC)cc2)c1)=NO , P-1 ,1,1,1.34375498984,0.689455946076
3204, EXIHAV , NC1=NN=NN1CCON(=O)=O , P21/c ,1,0,1.60368573783,0.698496961944
3206, VALHOF , O=C(N1OC2CCC1CC2)N1OC2CCC1CC2 , Aba2 ,0,0,1.34509929766,0.727647515139
3207, ALUNIF , CC1(C)OC2C(CO)OC(ON3C(=O)c4ccccc4C3=O)C(N=[N+]=[N-])C2O1 , P21212 ,0,0,1.3862705631999999,0.650263023927
3210, TEMDIY , [O]N(OC(=O)c1ccccc1)=C(C#N)c1ccccc1 , Pbca ,1,0,1.38948884574,0.705930445394
3211, VISMIV , CC1=C(C=CC(=O)C=Cc2ccc(cc2)N(=O)=O)C(C)(C)CCC1 , P21/c ,1,0,1.19349306061,0.7097701149429999
3212, YAZROJ , CCOC(=O)C1=C(N2C(CCc3ccccc3)C(=O)NC2=C(C#N)C1c1ccc(cc1)N(=O)=O)C(=O)OCC , C2 ,0,0,1.28380764133,0.637379293485
3213, BUMNOM , O=C1C2C3CC(C2C(=O)N1c1ccc(cc1)N(=O)=O)C1=C3C2CCC1C2 , P21/c ,1,0,1.36869972843,0.674538644876
3214, COCNBZ10 , O=C(OC1CCCCCC=C1)c1cc(cc(c1)N(=O)=O)N(=O)=O , P-1 ,1,1,1.4300236157700001,0.711590386625
3215, YONDUB , O=C(Oc1ccccc1N(=O)=O)N(Cc1ccccc1)Cc1ccccc1 , P21/c ,1,0,1.3669482795200003,0.7065558633429999
3216, ZOXYOA , CC(C(C(C)N(=O)=O)c1ccccc1)N(=O)=O , P21/c ,1,0,1.32299227717,0.704741088203
3217, TENJAZ , COC(=O)C(CCC(=O)C=C(O)c1ccc(cc1)N(=O)=O)C(=O)OC , P-1 ,1,1,1.42499703118,0.7035897435899999
3218, CILBUV , O=C1CCC(=O)N1OC(=O)c1ccccc1 , P21/c ,1,0,1.430782695,0.698445657333
3219, OBUWUF , Oc1ccc2ccccc2c1C=NNC(=O)c1ccc(cc1)N(=O)=O , P21/c ,1,0,1.43373374976,0.6991053131399999
3220, FAQQOD , COc1ccc(Nc2nc3ccc(OC)cc3[n+]([O-])c2C(=O)Nc2ccccc2)cc1 , P21/n ,0,0,1.39045957799,0.7016448370389999
3222, GUPNIO , CC(CN(CCNC(=O)C(C)(C)C)CCNC(=O)C(C)(C)C)=NO , Cc ,0,0,1.0685825999299998,0.648459877953
3223, CETRUQ03 , CC1(C)N([O])C(=[N+]([O-])C1(C)C)c1ccc2C(=O)c3ccccc3C(=O)c2c1 , Pbca ,1,0,1.3990001271099999,0.715900479919
3225, NIRLAC , COC1CCC2CC(CCOC(=O)c3ccc(cc3)N(=O)=O)(CC2C1(C)C)C(C)=C , P-1 ,1,1,1.2090375523399999,0.659962133001
3226, YECFIX , CC(C)(C)OC(=O)N1C(O)CC(N1C(=O)OC(C)(C)C)c1cccc(c1)N(=O)=O , P21 ,0,0,1.25526750951,0.643985849057
3227, DUCTUR , O=N(=O)c1ccc(cc1)C=NOCCCON=Cc1ccc(cc1)N(=O)=O , C2 ,0,1,1.4185367021899997,0.6944028253419999
3228, VIDGUK , COC1=C(CC(C)C)NC(=O)C(=N1[O])CC(C)C , P-1 ,1,1,1.19924441317,0.671199701937
3229, CUKCAM24 , OC(=O)c1cc(cc(c1)N(=O)=O)N(=O)=O , C2/c ,1,0,1.71598965511,0.7384222919939999
3230, ZELTIT , CC(C)(C)N1OC2(CC1c1ccccc1)N(C(OC2=O)c1ccccc1)C(=O)c1ccccc1 , P21/c ,1,0,1.2378877284,0.655688769268
3231, DPISOX , None , C2/c ,1,1,1.31115629596,0.704902830951
3232, GAFPEI , CC1(C)OCC(O1)C1OC2OC(C)(C)OC2C1(O)C(N)=NO , P212121 ,0,0,1.3602335098500002,0.699707680043
3233, TAGBOV , O=C(NC(NC(=O)c1ccc(cc1)N(=O)=O)c1ccccc1)c1ccc(cc1)N(=O)=O , Pnma ,1,0,1.47738221731,0.715306443164
3234, VACZOP , CC1ON=C2C1COC1C3OC(C)(C)OC3OC21 , P212121 ,0,0,1.30356169698,0.648769972403
3235, UZEPOG , COc1cc2CCN3OC4C(C3c2cc1OC)C(=O)N(C4=O)c1ccccc1 , P21/c ,1,0,1.40262989534,0.7063644841419999
3236, PAFCOR , O=C1CCCc2nc3ccc(cc3c(c3ccccc3)c12)N(=O)=O , P21/c ,1,0,1.43967315198,0.724254317111
3237, YITJOC , CN(CNC(=O)OCC(N(=O)=O)(N(=O)=O)N(=O)=O)N(=O)=O , P21/c ,1,0,1.7591068155200003,0.725361489095
3240, KAXHAS05 , CC1(C)N([O])C(=N([O])C1(C)C)c1ccc(cc1)N(=O)=O , P-1 ,1,1,1.34410031126,0.627551351001
3241, TANPEE , NC(N)=NN=O , P21/n ,0,1,1.60022798947,0.7247992863510001
3242, OCHTET12 , O=N(=O)N1CN(CN(CN(C1)N(=O)=O)N(=O)=O)N(=O)=O , P21/c ,1,1,1.89368079745,0.783254624164
3244, XEQXUP , O=C(OCCC1OC2CCCCC2Oc2ccccc12)c1cc(cc(c1)N(=O)=O)N(=O)=O , P-1 ,1,1,1.4452314471,0.711986594965
3245, FACZAN , Cc1ccc(CC(=C2CCCC2=NNc2ccc(cc2N(=O)=O)N(=O)=O)c2ccc(C)cc2)cc1 , P21/n ,0,1,1.3559372479299998,0.709785912515
3246, NORDEE , O=N(=O)c1ccc(Oc2ccc(cc2)c2ccccc2)cc1 , P21/c ,1,1,1.39259437972,0.7182027649770001
3247, PIBGOX , O=C(C=[N+]([O-])c1ccccc1)N(Cc1ccccc1)Cc1ccccc1 , P21/c ,1,0,1.23225288997,0.663590926567