ID,name,smiles,space_group,inversion_symmetry,beta_packing,density,packing_coefficient
2063, QONPOY , CC(=NO)C1=C(O)c2ccccc2NC1=O , P-1 ,1,1,1.4948078803,0.726898347415
2064, MOBGEQ , CC(C)(C)c1cc(c(N([O])c2ccncc2)c(c1)C(C)(C)C)C(C)(C)C , P21/c ,1,0,1.1409779255399999,0.6682176870750001
2066, BIMPIZ , CC1C(C=C(C=Cc2ccccc2)c2ccccc2ON=C1C)c1ccccc1 , P21/c ,1,0,1.18091248471,0.655811925439
2067, IMURIS , O=C(OCC[N+]([O-])=[N+]([O-])CCOC(=O)c1ccccc1)c1ccccc1 , P21/c ,1,0,1.4141484278,0.7170764628630001
2068, GUDWIM , CC1OC2(CCCCC2(NOCc2ccccc2)c2ccccc2)OC1C , P212121 ,0,1,1.23524566976,0.688549469413
2069, VOHZOI , O=N(=O)c1ccc(NN=C(c2ccccc2)N(=O)=O)c(c1)N(=O)=O , Pbca ,1,0,1.58963547671,0.721990688167
2070, EXEYUD , COC(=O)C1Cc2ccccc2C2(CCCC12)OC(=O)c1ccc(cc1)N(=O)=O , P21/c ,1,0,1.4369969700299998,0.7297898450679999
2071, KACGIH , CC(=O)Oc1ccc(O)c(c1)C(=CC=C(N1CCOCC1)c1ccccc1)N(=O)=O , P-1 ,1,1,1.33866936661,0.670553042284
2072, MAYSEL , COc1cccc(c1)C(=Cc1ccncc1)C(C)=NO , P-1 ,1,1,1.2554388134999999,0.6721596204350001
2073, GUJJIF , O=C1ON(C(=O)c2ccccc2)c2ccccc12 , P21/c ,1,0,1.46215965022,0.7198736842110001
2074, NUJFII , CCOC(=O)C(O)(C(=O)OCC)C(=Cc1ccc(OC)cc1)N(=O)=O , P-1 ,1,1,1.4154459380000002,0.704440599769
2076, JADDOI , CN(C)c1cc(ccc1Oc1ccc(cc1N(C)C)N(=O)=O)N(=O)=O , P-1 ,1,1,1.35490215036,0.624307070707
2077, CEJVUI , COC(=O)C=N([O])C(c1ccccc1)c1ccccc1 , P21/a ,0,1,1.29460376901,0.68162464986
2078, UNAYUD , COC(=O)C1=C(OC)C(=O)OC1c1ccc(cc1)N(=O)=O , P2/n ,0,1,1.5115833570500001,0.71560025934
2079, JOBHAJ01 , COC(=O)C(CC1=CN(O)c2ccccc12)NC(C)=O , P-1 ,1,1,1.32375788703,0.6695663198139999
2080, OJAQIZ , CON(C)C(=O)C1(OCCO1)c1ccccc1N(CC=C)C(=O)OC(C)(C)C , Pna21 ,0,0,1.30510648029,0.6937165629440001
2081, HECTIU , CCN1N=CC(C1=O)=N([O])C(C)(C)C , P21/c ,1,1,1.22490177179,0.664833978612
2083, YELQIS , CCOC(=O)C1=NOC(=C1C=O)c1ccc(cc1)N(=O)=O , P-1 ,1,1,1.5432829591400001,0.730784030784
2085, TEVGAF , CN1C(=NC=C1N(=O)=O)C=NOCc1ccc(C)cc1 , P21/c ,1,0,1.4148771599599999,0.726180726181
2087, PESFOJ , COc1cc(ccc1OCc1ccc(cc1)N(=O)=O)C=NNC(=O)c1ccncc1 , Pccn ,1,0,1.4412880470700002,0.714369832017
2088, DANSOD , COC(=O)c1cncc(Oc2ccc(cc2)C2=[N+]([O-])C(C)(C)C(C)(C)N2[O])c1 , P21/n ,0,0,1.37722541323,0.70961622647
2089, KEZSOZ , COc1cc(OC)c(CC2CCCC(C2)OC(=O)c2ccc(cc2)N(=O)=O)c(OC)c1 , P-1 ,1,1,1.2935285224200002,0.666168968521
2091, QQQFGG02 , O=N(=O)c1ccc(Nc2ccccc2)c(c1)N(=O)=O , P21/n ,0,0,1.5457463516,0.733792815372
2092, LOBDIR , CC(C)OC(=O)C1(CN1C(=O)c1cc(cc(c1)N(=O)=O)N(=O)=O)C(=O)OC(C)(C)C , C2/c ,1,0,1.30750793584,0.633906715624
2094, MINJEA , CN1C(=C(C(c2ccc(cc2)N(=O)=O)C2=C(O)CC(C)(C)CC2=O)C(=O)N(C)C1=O)O , P21/c ,1,0,1.37290752451,0.671565409406
2096, ICALIH , [O]N1=C(c2ccccc2)c2ccccc2c2ccccc2C1 , P21/n ,0,0,1.28206985463,0.693133299585
2097, ULASEF , O=N(=O)c1ccc(OC2C3CC4CC(C3)CC2C4)cc1 , P-1 ,1,1,1.35788401206,0.703966131907
2098, JEKJOB , CON1C(CC(C)(C)C1=O)C(C#Cc1ccccc1)c1ccccc1 , P-1 ,1,1,1.2146415291,0.674401509057
2099, NSTYRO01 , O=N(=O)c1ccc(cc1)C1CO1 , P1121/b ,0,0,1.4315975688100002,0.719972613459
2100, TEHQOP , CC1(CC2(C)CC(C)(C1)C(=O)NC2=O)C#CC#Cc1ccc(cc1)N(=O)=O , P21/c ,1,0,1.30024892414,0.680530406661
2101, FAYBIR , COc1ccc(cc1)C(=O)NN=C(C)C(C)=NO , P21/n ,0,0,1.3244279760700002,0.6882225119509999
2102, KAKHUB , O=N(=O)c1cccc(OC(=Cc2ccccc2)c2ccccc2)c1 , C2/c ,1,0,1.3442962495,0.69253973141
2103, QEGZEK , CC1=NOC(=O)C1=CC1=CN(N=C1c1ccc(O)cc1)c1ccccc1 , I2/a ,0,0,1.41320972642,0.708979591837
2104, LEQTAC , Oc1ccc(cc1)C(=O)NN=CC1=CC=C(O1)N(=O)=O , P-1 ,1,1,1.5647903752899999,0.723032560375
2105, JISVUC , CC(C)(C)OC(ON1C(C)(C)c2ccccc2C1(C)C)C(=O)c1ccccc1 , P212121 ,0,0,1.09953385761,0.619291364977
2106, GELFOV , COc1ccc(cc1)C=Cc1ccc2ccccc2n1[O] , Pbca ,1,1,1.34150797961,0.717028886147
2107, OXUCOA , [O]n1c(ccc2ccc3ccc4ccc5c6ccccc6c6ccccc6c5c4c3c12)c1ccccn1 , P212121 ,0,0,1.3808080495800001,0.701836695326
2108, LONJAA , Oc1cc(O)c(c(O)c1N(=O)=O)N(=O)=O , P21 ,0,0,1.9677932272099998,0.8022598870059999
2109, EBUDIR , COc1ccc(cc1)C(OC(C)=O)C(C)ON1C(C)(C)CCCC1(C)C , P21/n ,0,0,1.17053092694,0.6783822307590001
2110, ELENUG , CC(=O)OC1CC2C3OC(C)(C)OC3C(C3COC(C)(C)O3)N2O1 , P21 ,0,0,1.29310532836,0.664604377104
2111, PEVNIN , CC12=C3(C)ON(O1)C(C(C2N(=O)=O)c1ccccc31)(N(=O)=O)N(=O)=O , P212121 ,0,0,1.5892700609700001,0.711734640331
2112, LIPKUR , Cc1ccc(cc1)C(NCCCNC(=NO)c1ccc(C)cc1)=NO , P21/c ,1,0,1.27960250479,0.6960966854539999
2113, ZELSUE , O=C1OC(N(C(=O)c2ccccc2)C21CC(N(O2)c1ccccc1)c1ccccc1)c1ccccc1 , P21 ,0,0,1.27543381885,0.657061793457
2114, SITKAI , O=N(=O)c1ccccc1Oc1cccc(C#N)c1C#N , P21/n ,0,0,1.4385633582600001,0.698462906504
2115, LITSIR , Cc1cccc(C(C(=O)N(c2ccccc2)c2ccccc2)C(=O)N(c2ccccc2)c2ccccc2)[n+]1[O-] , P21/n ,0,0,1.25616737275,0.659584717608
2117, GAKVUL , OC(NN1C=NN=C1)c1ccc(cc1)N(=O)=O , Cc ,0,0,1.48936315889,0.7055441016609999
2118, ZONJOB , CN(C)c1ccc(OCCOc2ccc(cc2)N(=O)=O)cc1 , P21/c ,1,0,1.30643306954,0.6904811435699999
2119, OXOLEU , O=C1ON=C2C3CCCN3C(=O)c3ccccc3N12 , I2 ,0,0,1.46510571433,0.7062708028229999
2121, GELRIA , None , C2/c ,1,0,1.23422811172,0.657807017544
2122, DIHHEK , COC(=O)c1nc(CC2ON=C(c3ccccc3)C2(C)C)c2ccccc2c1c1ccccc1 , Pbca ,1,0,1.2698016989399998,0.674103725308
2123, BANSOY , CC(=C=Nc1ccc(cc1)N(=O)=O)C(C)(C)Cc1ccccc1 , P21/c ,1,0,1.1941902176799999,0.666669684651
2124, NEQHUP , COc1ccc(CN2C(CC(C)C)C(=O)C(C)(C(=O)OCc3ccc(cc3)N(=O)=O)C2=O)cc1 , P21/c ,1,0,1.28210646561,0.669632267584
2125, FASGAH , O=C1c2ccccc2c2cc(cc3c2c1c1ccccc1c3N(=O)=O)N(=O)=O , P21/n ,0,0,1.56255471893,0.740639140133
2126, MEFZIG , COC(=O)C1ON2OC(OC3CCCC3(c3ccccc3)c3ccccc3)C(OC(=O)c3ccccc3)C(OC(=O)c3ccccc3)C2C1C(=O)OC , P-1 ,1,1,1.3762633530200001,0.701931124506
2127, FETZOU , COc1ccc(cc1)C1C(C(=O)C(C(N1N=O)c1ccc(OC)cc1)c1ccccc1)c1ccccc1 , P21/n ,0,0,1.2610687715200002,0.6607258812619999
2130, LUKFIH , CC1=C(c2ccccc2N1Cc1ccccc1)C1=C(C=C(C2=NON(=C12)[O])N(=O)=O)N(=O)=O , P21/c ,1,1,1.5017708579,0.698934875228
2132, ABANAU , COC(=O)C(c1ccc(cc1N(=O)=O)N(=O)=O)c1ccc(cc1N(=O)=O)N(=O)=O , P21/c ,1,0,1.56444351646,0.699160493827
2133, NEGLOA , CON1CC(OC(C)=O)Oc2c3OC(=O)C=C(C)c3ccc12 , P21/n ,0,0,1.3826813023700002,0.62241247125
2134, NIHKOF , COC(=O)C1(CCC2C(OC3CC23C1)c1ccccc1N(=O)=O)C(=O)OC , P-1 ,1,1,1.4089168094100002,0.708908941756
2135, TMXPYO , CC1(C)CC(O)C(C)(C)N1[O] , P212121 ,0,1,1.13422789723,0.678663865546
2136, SISPAM , C[N+]([O-])=CC1=CC=CO1 , P21/n ,0,0,1.3486058781,0.7064349112430001
2138, NUNGEJ , COC(=O)C12C(C)CCC1(C)C(C)CCC2=NNc1ccc(cc1N(=O)=O)N(=O)=O , P21/n ,0,0,1.35054284435,0.6826263484990001
2139, LURYOM , CCN(CN(CC)N(=O)=O)N(=O)=O , P21/c ,1,0,1.4260807881200002,0.699855998482
2140, JOTFED , CC(=O)N1CN(C2C1N(CN2N(=O)=O)N(=O)=O)C(C)=O , P212121 ,0,0,1.5955796685799999,0.7147286821709999
2141, CUTHEF , COC(C(C=N([O])C(C)(C)C)c1ccccc1)c1ccc(OC)cc1 , P21/c ,1,0,1.1906560850599999,0.6721763761990001
2143, BOWCOG , CC1(C)CC(=O)C2(OC3=C(C2c2cccc(c2)N(=O)=O)C(=O)CC(C)(C)C3)C(=O)C1 , P21/c ,1,0,1.30237346109,0.670841600529
2147, NUPTIC , NNC(=O)C(=O)NO , Cc ,0,0,1.8059244939400003,0.7968924972
2148, FAKSAM , CC(C)C(=O)NOC(CCC(=O)NC1CCCCC1)c1ccccc1 , C2/c ,1,0,1.17386164804,0.65548015873
2149, FENCOQ , CC(=NO)C1=NO[N+](=C1C)[O-] , Pmcn ,0,1,1.4571457828,0.684339902522
2150, QUNDIO , O=C(c1cccc(c1)N(=O)=O)c1cccc(c1)N(=O)=O , P21212 ,0,0,1.5633835713600002,0.7598537286139999
2151, LAQRUS , ON=Cc1ccccc1OCC(=Cc1ccccc1)C#N , P21/c ,1,0,1.2856649223299998,0.680448190789
2152, VINDAX , COc1ccc(Nc2c(cc(cc2N(=O)=O)N(=O)=O)N(=O)=O)cc1 , R-3 ,1,0,1.5408493607499998,0.699198404948
2153, VUXBIZ , CC(=O)OC1C=CCCC1(OC(=O)c1ccc(cc1)N(=O)=O)C(C)=O , C2/c ,1,0,1.3368446279600001,0.659413793103
2154, XISLAN , COc1cccc(c1)C(=O)N(O)c1ccc(C)cc1 , P21/c ,1,0,1.27196995682,0.668016194332
2155, LAQGIU , CC1CCCC2(CCCC2COC(=O)c2ccc(cc2)N(=O)=O)O1 , P21 ,0,0,1.31745918645,0.698845327605
2156, VOSRUQ , COc1cc(cc(CN2CCCCC2)c1O)C1=[N+]([O-])C(C)(C)C(C)(C)N1[O] , P-1 ,1,1,1.24974480632,0.6770623201270001
2157, KOTWOH , CN1C(=O)N(C)c2ncc(c(c3cncnc3)c2C1=O)N(=O)=O , P21/c ,1,0,1.5691986816699999,0.72176511955
2159, JEBBAW , O=Cc1cc(ccc1N1CCCC1)N(=O)=O , P21/n ,0,0,1.37810521512,0.741090421657
2160, BAPXIB , COC(=O)C1CC(N(O)C1c1ccc(cc1)N(=O)=O)C(=O)OC , P21/n ,0,1,1.47498616208,0.7099113446940001
2162, AWELUL , O=N(=O)C(C1=NON=C1N=NC1=NON=C1C(N(=O)=O)N(=O)=O)N(=O)=O , P21/n ,0,0,1.8742192948099998,0.7324195120810001
2163, HEHWIA , O=N(=O)C1=CC=CC=C(C1)N(=O)=O , Cc ,0,0,1.48377299769,0.6936988936990001
2164, TIRKOW , CC1CCC(C(C)C)C(C1)OC(=O)C1ON=C(C1C(=O)OC1CC(C)CCC1C(C)C)c1ccc(C)cc1 , P21 ,0,0,1.14928903142,0.6544778892600001
2165, HIKJEQ , CN1N=CC=C1C1=N([O])C(C)(C)C(C)(C)N1[O] , P21/c ,1,0,1.2463414946,0.660294349747
2168, HYCTDD , NCCN=Cc1cc(ccc1N1CCN(CC1)c1ccc(cc1C=NCCN)N(=O)=O)N(=O)=O , P21/c ,1,1,1.34870455083,0.686769946074
2169, YIPQOF , CN1C(=O)C2(C(C(CCC2(C)O)N(=O)=O)c2ccccc2)c2ccccc12 , P21/n ,0,0,1.34679305195,0.699292271399
2170, MONLAE , O=C1OC(=Nc2ccc(cc2)N(=O)=O)c2cccc3cccc1c23 , C2/c ,1,0,1.5110199189500002,0.7186721088439999
2171, XAYYAA , CC(=O)C(C(CN(=O)=O)c1ccccc1)C(C)=O , P212121 ,0,0,1.3122995082,0.697462333916
2172, BETBAF , OC12CCC(=O)C(C1)C(C=Cc1ccccc1)C2N(=O)=O , P21212 ,0,0,1.3109470319499998,0.674447466114
2173, FIWGAV , O=C(Nc1cccc2cccnc12)C1C(CC1c1cccc(c1)N(=O)=O)c1cccc(c1)N(=O)=O , P21/c ,1,0,1.3744323925600002,0.681377382447
2174, VEBVOQ , COC(=O)C1(CC2=C(C)C(C(c3ccccc3)C2(C)OC1c1ccc(cc1)N(=O)=O)c1ccccc1)C(=O)OC , P21/c ,1,0,1.3106370768,0.681039710587
2175, BEGYUH , O=N(=O)c1ccc(cc1)N=NN1CCN2CN(CCN(C2)N=Nc2ccc(cc2)N(=O)=O)C1 , P21/c ,1,0,1.44668184696,0.701572362278
2176, VAFQUQ , COC(=O)C1=CON2C(O)C(C)(C)CC12C , P-1 ,1,1,1.3094654690799998,0.6955790540700001
2177, CORVUC , CCC1C(N(C)C(CC1=NOC(=O)Oc1ccccc1)c1ccccc1)c1ccccc1 , P21/c ,1,0,1.23729468072,0.661945011173
2179, UTIKOZ , CCOC(=O)C1(NC2C(C1c1ccccc1OC)C(=O)Oc1ccc(cc21)N(=O)=O)C(=O)OCC , P212121 ,0,0,1.38383772718,0.6741670094609999
2180, FUPJUV , CC(C)(C)OC(=O)N1N=N([O])c2ccccc12 , P21/m ,0,1,1.33775834961,0.675394686176
2182, WUMJAQ , O=N(=O)C12CC1CCOC2C1CCCCC1 , P-1 ,1,1,1.25149534653,0.668416320381
2184, SIFWEK , COC(=O)C=C(ON1C(=O)c2ccccc2C1=O)C(=O)OC , P21/c ,1,0,1.47128519726,0.69292
2185, QUBTEN , CC(C)(C)C1=NN(c2ccccc2)C2=C1COCN2Cc1ccc(cc1)N(=O)=O , P21/c ,1,0,1.35041946044,0.7014637904469999
2186, PABROA , OC1=C(C(=O)CCC1)C(=O)c1ccccc1N(=O)=O , P-1 ,1,0,1.4351382705700002,0.708746094412
2187, HICDAY , COc1ccc(C=Cc2ccc(cc2)N(=O)=O)cc1O , P21/n ,0,0,1.3576476346000002,0.691442999447
2188, EKIQOE , CC(C)(C=C)C1=CC(C)(C)N(=N1[O])[O] , P-1 ,1,0,1.20884134951,0.584946236559
2189, BEYZEK , O=C1c2cc(ccc2c2ccc(cc12)N(=O)=O)N(=O)=O , Pca21 ,0,0,1.58107609984,0.723419660262
2190, UCOBEV , O=C1C2CCCN2C(=O)C(=Cc2cccnc2)N1OC1CCCCC1 , P212121 ,0,0,1.30505317497,0.683105072268
2191, NADLEJ , CC(OCc1ccccc1)C1C2OC(=O)CC2ON1Cc1ccccc1 , P212121 ,0,0,1.25751734904,0.663915277341
2192, JENZAG , O=N(=O)c1ccc2OC(=Nc2c1)c1ccccc1 , Cc ,0,1,1.46383275806,0.705576441103
2194, VORLEU , O=N(=O)c1cc(cc(c1)N(=O)=O)c1cc(cc(c1)N(=O)=O)N(=O)=O , Pbca ,1,0,1.74468436289,0.758807588076
2195, IPUQAL , CCCCCCCCOc1cc(OCCCCCCCC)c(cc1NC(=O)c1ccc(c(OC)c1OC)N(=O)=O)C(=O)Nc1cc(C)ccc1OC , P-1 ,1,1,1.25616851667,0.686847999509
2196, QINMIJ , CC1(OCC2CC(Cc3ccc(cc3)N(=O)=O)C(=O)N12)c1ccccc1 , P212121 ,0,0,1.3884412017299999,0.6538139534880001
2197, QEPVEN , COC(=O)CC1(C)Oc2ccc(cc2C1=O)N(=O)=O , Pbca ,1,0,1.42796616749,0.6778289461220001
2198, GEYWIQ , O=N(=O)c1ccc2OCOCc2c1 , Pbca ,1,0,1.56118113528,0.734638668659
2199, NEQKID , O=N(=O)c1ccc(OC2CC3c4ccccc4C2c2ccccc32)cc1 , P21/n ,0,0,1.33898108239,0.690503875969
2200, MNPHOL23 , Oc1cccc(c1)N(=O)=O , P212121 ,0,0,1.5155989638799998,0.7225578292929999
2201, SAFZOQ , O=C(C=Cc1ccccc1)C=Cc1cccc(c1)N(=O)=O , P21/c ,1,0,1.3749442495500002,0.714105820106
2203, SULZUV , CC(C)C1(C)N(C)C(=O)C=[N+]1[O-] , P-1 ,1,1,1.27631146517,0.700935220935
2204, KIJCUE , O=N(=O)C(CCN1C=NN=N1)(N(=O)=O)N(=O)=O , P21/c ,1,0,1.75282944597,0.725574971477
2205, BIXGOE , CC1C(OCCN1C1=CCCCC1C(CN(=O)=O)c1ccccc1)c1ccccc1 , P212121 ,0,0,1.21737776338,0.6813285585879999
2206, OTENEI , COc1cc(ccc1C(=O)Nc1ccccc1N1C=CC=N1)N(=O)=O , Pbca ,1,0,1.42649122937,0.6932482087540001
2207, TUXPUZ , COc1cccc(OC)c1C=NOC(C)CC1(O)CC(C1)(c1ccccc1)c1ccccc1 , P21/n ,0,1,1.2792572486799998,0.7048307796709999
2208, BIZNOP , CC1=NC(=NO1)C1=NOC(=N1)C , P-1 ,1,1,1.53608726341,0.729682539683
2209, QIGSUU , CC(=NO)c1ccc(cc1)N=Cc1cccnc1 , P21 ,0,0,1.31821031072,0.694061233909
2210, RUSHIW , O=N(=O)C1(CC2CC1CC2(N=[N+]=[N-])N(=O)=O)N=[N+]=[N-] , P-1 ,1,1,1.5761825333700001,0.691919191919
2211, CIPRAW , CN1C(CC2=CNc3cccc(c23)N(=O)=O)C(=O)N(C)C(O)(Cc2cccc(O)c2)C1=O , C2 ,0,0,1.4361046234000001,0.70660690943
2212, LICMIT02 , CC1(C)N([O])C(=N([O])C1(C)C)c1cc(O)ccc1O , P21/a ,0,1,1.32768574065,0.673572431896
2213, YOJXIG , CC(=O)CCC(CCC(C)=O)(C#N)N(=O)=O , Pmn21 ,0,0,1.32230169445,0.706075533662
2214, VIRKAI , CN1OC2OC(=O)OC2C1C1OC(OC1(C)c1cc(OCc2ccccc2)ccc1OCc1ccccc1)c1ccccc1 , P-1 ,1,1,1.31758614074,0.6754158442470001
2215, PELFES , CC1=Nc2ccccc2N1c1ccccc1N(=O)=O , P-1 ,1,1,1.36558247333,0.6938809054189999
2216, GIHPOC , O=N(=O)C1CCCCC1N(=O)=N(=O)C1CCCCC1N(=O)=O , C2/c ,1,1,1.33799914824,0.658028565651
2218, GOJDUE , O=N(=O)C=CC1=CNc2ccccc12 , P21/n ,0,0,1.4283475546899997,0.671648849031
2219, CADBER , CC1=NC(=NO1)C1=NON=C1N=NC1=NON=C1C1=NOC(=N1)C , P-1 ,1,1,1.6238779273700001,0.6904917177509999
2220, UZUBEY , COC(=O)CCN1C=C(C(=O)NC1=O)C1=NOC(CC#N)C1 , P21/n ,0,0,1.5812189556999998,0.708176880966
2221, XARMUA01 , O=C1C(Cc2ccccc12)=Cc1cccc(c1)N(=O)=O , P21/c ,1,1,1.45227642417,0.7380381604699999
2222, UBUWOG01 , ON=C(Cc1ccccn1)c1ccccn1 , Pna21 ,0,0,1.30290154183,0.688785301025
2223, CMCNCB , COC(=O)C1(CCC1(C(=O)OC)c1ccc(cc1)N(=O)=O)c1ccc(cc1)N(=O)=O , P21/c ,1,0,1.37413268115,0.6727722338940001
2224, COWGIF , CON=[N+]([O-])N1CCN(CC1)c1ccccc1 , Pbca ,1,0,1.29104546105,0.675675848979
2225, VAVVIZ , C=C1C2CCC3(CCCCC3C2)C1OC(=O)c1ccc(cc1N(=O)=O)N(=O)=O , P21 ,0,0,1.40844213977,0.708052181736
2226, GATDOX , O=N(=O)C1=NN(CN2N=C(C(=C2[O-])[N+]#N)N(=O)=O)C(=C1[N+]#N)[O-] , Pnma ,1,0,1.7768874850999998,0.717171717172
2227, CEXYIO , CON(C)CC1=NNc2ccccc12 , P21 ,0,0,1.27123186436,0.680204330861
2228, HANVAV , COC(=O)C1(CC=C(C)C1C(=O)c1ccc(cc1)N(=O)=O)C(=O)OC , P21 ,0,0,1.4308134856299999,0.715462470449
2229, TAGDAG , CC(=O)C(N1CCCCC1)(C(C)=NO)c1ccccc1 , P21/a ,0,0,1.22467879291,0.697075471698
2230, DORJAW , COc1cc(cc2CN3CN(Cc4cc(cc(OC)c34)N(=O)=O)c12)N(=O)=O , P21/c ,1,0,1.56289002014,0.743926563723
2231, LEFRAP , O=N(=O)C1CN(CN(C1)N(=O)=O)N(=O)=O , P21/c ,1,0,1.7246126254900003,0.736000558581
2233, MOPGOO , CC(C(CC(=NNc1ccc(cc1N(=O)=O)N(=O)=O)c1ccccc1)C#CC1CC1)C(C)(C)C , P-1 ,1,1,1.2510979226,0.6800358422939999
2234, PAQWOV , CC1(C)N([O])C(=N([O])C1(C)C)c1cccc(N)c1 , P21/c ,1,0,1.24928492558,0.675318190264
2235, MISDAU , COC(=O)C(C)=NNc1ccc(cc1)N(=O)=O , P21/c ,1,0,1.4874400827,0.73304029304
2237, WOBLII , CC(C)NC(=O)CONCC1CCCN1C(=O)C(C)(C)C , P212121 ,0,0,1.16894565682,0.6688738963849999
2238, RUVTAD01 , OC1CCCCC1Nc1ccc(cc1)N(=O)=O , C2/c ,1,0,1.33271089806,0.695205673759
2239, VIWRAV , O=N(=O)N=C1NN=NN1 , P21/c ,1,0,1.8665714256000001,0.7242274569399999
2240, CEMHEJ , CC1=C(C=O)C(c2ccc(cc2)N(=O)=O)C2(C1)C(=O)N(C(=O)OC(C)(C)C)c1ccccc21 , P212121 ,0,0,1.36234826227,0.7021178149349999
2241, AYUDUU , CC1=NOC(=C1C)N=Cc1ccc2OCOc2c1 , P21/n ,0,1,1.4019506438299998,0.7038354143619999
2242, VAVQEQ , O=C(C1OC(COCc2ccccc2)C(OCc2ccccc2)C(OCc2ccccc2)C1N(=O)=O)c1ccc2ccccc2n1 , P21 ,0,0,1.31370535213,0.686929014547
2245, LIVWET02 , O=C(CN1C=CN=C1N(=O)=O)NCc1ccccc1 , P21 ,0,0,1.3951504963499999,0.686425732737
2246, KOZTOK , O=C1c2ccccc2ON=C1c1ccccc1 , P21/n ,0,1,1.4191626328,0.720669806384
2247, XOJMIT01 , O=N(=O)c1ccc(NN=CC2=CC=CN2)cc1 , P212121 ,0,0,1.37595999939,0.678971008575
2248, YUXMOU , COC(=O)c1cccc(NC(=O)c2cccc(NC(=O)c3cccc(NC(=O)c4cccc(c4OC)N(=O)=O)c3OC)c2OC)c1OC , P-1 ,1,1,1.4761901264300001,0.718558591601
2249, VEKKUS , CC(=O)Oc1c2Cc3cccc(Cc4cc(cc(Cc5cccc(Cc1cc(c2)N=Nc1ccc(cc1N(=O)=O)N(=O)=O)c5OC(=O)c1ccccc1)c4OC(C)=O)N=Nc1ccc(cc1N(=O)=O)N(=O)=O)c3OC(=O)c1ccccc1 , P-1 ,1,1,1.4057221872999999,0.673505892256
2250, KOGWOS , CC1(C)CC2=C(c3ccccc3N2CC#CC#CCO)C(C)(C)N1[O] , P-1 ,1,1,1.19208256915,0.6628156514720001
2251, IWAVOT , O=N(=O)C1=CC2=[N+]([O-])C3(CCCC3)[N+](=C2C=C1)[O-] , P21/n ,0,0,1.5435237808200002,0.74011388801
2252, ZURLOP , CCCCN1C=C(C=N1)C(=O)CC(C)(C)C(C)(C)N(=O)=O , Cc ,0,0,1.18098030298,0.663354276792
2253, WIKYEU , Cc1c(cc2c(c1N(=O)=O)C(C)(C)CC2(C)C)N(=O)=O , P212121 ,0,1,1.28481116738,0.7012076982690001
2254, XEKLAB , OC1CCC(C=C)C2CCCC(=NNc3ccc(cc3N(=O)=O)N(=O)=O)C12 , P21 ,0,0,1.4042672359200001,0.71589889579
2256, TAYXOG , CC1C(CC2CC1C2(C)C)N([O])=N([O])C1CC2CC(C1C)C2(C)C , C2221 ,0,0,1.11822043721,0.6331717724539999
2257, PYRDNO20 , [O-][n+]1ccccc1 , P41212 ,0,0,1.50776701617,0.810961884754
2258, XEQXOH , [O-][N+]1=CC(OCc2ccccc2)C(OCc2ccccc2)C1COCc1ccccc1 , P21 ,0,0,1.2496215082,0.666927149334
2259, GIGQUI01 , COc1c(c(OC)c(c(OC)c1N(=O)=O)N(=O)=O)N(=O)=O , P21/c ,1,0,1.61846219676,0.7089905753970001
2260, HEXTIN01 , Cc1c(c(C)c(c(C)c1N(=O)=O)N(=O)=O)N(=O)=O , P-1 ,1,0,1.53711895935,0.741101491101
2261, PABMAI , CCOC(=O)C1=NOC(=C1C(C)=NNc1ccc(cc1N(=O)=O)N(=O)=O)CCc1ccc2ccccc2c1 , P21/c ,1,0,1.3725213567200003,0.72592039801
2262, XIMHUW , CC1C(COC(=O)c2ccc(cc2)N(=O)=O)OC(C1OC(=O)c1ccc(cc1)N(=O)=O)c1ccccc1 , C2/c ,1,1,1.4280297004,0.695099659699
2264, JEXMAA , O=N(=O)N1CC(C2CN(CN2N(=O)=O)N(=O)=O)N(C1)N(=O)=O , P212121 ,0,0,1.7112780851700002,0.711696344892
2265, RAYRUE , COc1ccc(cc1)C(=O)N(C)O , P212121 ,0,0,1.3467521396899997,0.6949583554850001
2267, EMOLEZ , CC1(C)CC(=O)C2=C(C1)N(N=N2)c1ccc(cc1)N(=O)=O , I2/a ,0,0,1.3615333977700002,0.675778763229
2268, ZOLZUV , CC(=O)NN1C=C(C#N)C(=N1[O])c1ccccc1 , P21/c ,1,0,1.38519565785,0.6992915180339999
2269, NOKXUG , CCOC(=O)C12C(ON(C1c1ccccc1)c1ccccc1)C1COC(N1C2=O)c1ccccc1 , P21 ,0,0,1.2758281610200002,0.650219987429
2271, FASCIM , CC1CCC(C(C1)OC(=O)C(=C)C(C1OC(=O)C=C1)c1ccc(cc1)N(=O)=O)C(C)(C)c1ccccc1 , P212121 ,0,0,1.28863616719,0.6881432473729999
2272, DECNPH , O=N(=O)c1ccc(NN=C2C3CC4C5CC3C(C5)C24)c(c1)N(=O)=O , P-1 ,1,1,1.47587190948,0.708517048795
2273, OFEWOL , CCOC(=O)CNc1nc(N)nc(OCc2ccccc2)c1N=O , P-1 ,1,1,1.41060480317,0.69786628734
2274, HERXEK01 , Cc1ccc(O)c(CN2CCN(CC2)c2ccc(cc2)N(=O)=O)c1 , P212121 ,0,0,1.26430095487,0.666057019903
2275, ILOFEW , CN(CN1C(=O)NN=C1N(=O)=O)N(=O)=O , P21 ,0,0,1.7211080856799998,0.736049683031
2277, AMXZPY10 , CC1=NC(=NO1)c1cccnc1N , P21/c ,1,0,1.38048200983,0.698824538825
2278, LEWVER , CONC12Cc3ccccc3C1(c1ccccc1)C(=C(C)N2Cc1ccccc1)C(=O)OC , Pbca ,1,0,1.3151589240600001,0.705325255102
2280, TAJFAL , CC(C)C(OC(=O)c1ccc(cc1)N(=O)=O)C(C=C)c1ccccc1 , P21/c ,1,0,1.2512440152600002,0.672861700511
2282, EVEXAE , COc1ccc(cc1)C(=O)C=C(O)c1cccc(c1)N(=O)=O , P21/n ,0,1,1.45427491528,0.7237679211470001
2283, HEDMOT , CC(=O)CCC(=Cc1ccccc1)N(=O)=O , P-1 ,1,1,1.29549863552,0.684359359359
2285, FEKHUA , CCOC(=O)C1(CCCC1=O)C(CN(=O)=O)C#Cc1ccccc1 , P212121 ,0,0,1.3016069618500001,0.6895833333329999
2288, QAWNIL , CCOC1c2ccc(OC)cc2N2C(=O)N(c3ccccc3)C3(C)N(OC)C(=O)NC123 , P21/c ,1,1,1.33417309304,0.606303642782
2289, HANLEP , CON=C(C)C1(NO)C(=O)OC(C)(C)OC1=O , P21/c ,1,0,1.46186997515,0.7135247707160001
2291, BIYDET , CCC(C1OC(CC)(CC1C)C1CCC(O)(CC)C(C)O1)C(=O)C(C)C(O)C(C)CCc1ccc(C)c(O)c1C(=O)OCc1ccccc1N(=O)=O , P212121 ,0,0,1.18537574261,0.646136920251
2292, ZICYIT , N(Oc1ccccc1)C12c3ccccc3C(c3ccccc13)c1ccccc21 , P21/a ,0,0,1.2802876814700002,0.704126610974
2294, ULAVUA , CC1=NON=C1C1=NNC=C1N(=O)=O , P21/c ,1,1,1.6854802407299998,0.740897511268
2296, CUWRAP , COC(=O)C1=C2NCCC(C2CC1)c1cc(OC)c(OC)cc1N(=O)=O , C2 ,0,0,1.34048484189,0.671456459005
2297, RULFIN , CC(C)(C(CC(=O)c1ccccc1)c1ccccc1)N(=O)=O , P212121 ,0,1,1.25471683693,0.6784246575339999
2298, INOLUU , O=N(=O)C1=C(N(Cc2ccccc2)N=N1)c1ccccc1 , P21/n ,0,0,1.3515030283000002,0.675047884767
2299, LIVJEF , CC1=C2C(=O)NC=CC2=NO1 , Pbca ,1,0,1.5174343906099999,0.728197189807