ID,name,smiles,space_group,inversion_symmetry,beta_packing,density,packing_coefficient
4639, URERIU , CC1(C)C(=O)ON=C1c1ccccc1 , P21/m ,0,1,1.2890957973100001,0.6713430602320001
4640, RUTZAH , CC1CCC(OC(=O)c2cc(cc(c2)N(=O)=O)N(=O)=O)C(c2ccccc2)C2=CCC(C)C12 , P212121 ,0,0,1.33984062885,0.69122530475
4641, NIBBEI , O=C1OC2(CCCC2)OC(=O)C1=CNc1cccc(c1)N(=O)=O , P21/c ,1,0,1.46870329408,0.696741854637
4642, LIXNEM , CC=CC=CC(=O)Nc1nc(N)nc(OCc2ccccc2)c1N=O , P-1 ,1,1,1.35979858093,0.688974888201
4643, GADLEC , ON=C(C1CC1C1=CC=CO1)C1=CC=CO1 , P21/n ,0,1,1.33627768284,0.6817028985510001
4645, TIMZAQ02 , O=C(NN=Cc1ccccc1N(=O)=O)c1ccncc1 , P21/c ,1,0,1.42072785514,0.6973132131029999
4646, TAYKAI , CN(C)c1ccc(cc1)C(Cc1ccccc1)=NO , P21/n ,0,0,1.17077955077,0.644423158791
4647, MNPYDO01 , Cc1cn([O])ccc1N(=O)=O , P212121 ,0,0,1.56601414046,0.7644097837649999
4648, VUJWEC , COC1CCC(CO)N1C(=O)c1ccccc1N(=O)=O , P21 ,0,0,1.34817314741,0.6919759366570001
4649, RAGMAP , CC1=NC2C(CC(C)(C)N([O])C2(C)C)NC(C)(C)C1 , P21/c ,1,0,1.1494191989899998,0.6717764731460001
4650, TIVWOK , O=NN(C12CC3CC(CC(C3)C1)C2)C12CC3CC(CC(C3)C1)C2 , P21/n ,0,1,1.23068778784,0.6745448179269999
4651, VENLEG , O=N(=O)c1ccccc1C=NCCN(CCN=Cc1ccccc1N(=O)=O)CCN=Cc1ccccc1N(=O)=O , R-3 ,1,1,1.3925018582,0.710673216479
4652, TEZGOV , CC(C)c1ccc2c(CCC3C(C)(CCCC23C)CN(=O)=O)c1 , P212121 ,0,0,1.2013419617299999,0.69401163464
4654, MABZNA02 , CN(C)c1ccc(cc1)C=Nc1ccc(cc1)N(=O)=O , P21/c ,1,0,1.32742244395,0.7156481481479999
4656, HOXGUY , O=C1CCC(Cc2ccc(cc2)N(=O)=O)(O1)c1ccccc1 , P21/n ,0,0,1.34561733724,0.6819364754100001
4657, EXIFEW , CC1(C)N([O])C(=[N+]([O-])C1(C)C)C(N)=O , Pna21 ,0,0,1.30700357511,0.681286549708
4658, NABMUY01 , CC(CN(CC(C)(N(=O)=O)N(=O)=O)N(=O)=O)(N(=O)=O)N(=O)=O , C2 ,0,1,1.72477207993,0.744990503324
4659, METNAM03 , CN(C)N(=O)=O , P21/m ,0,1,1.4350894713299998,0.717405913978
4660, YEJTOY , COC(C1CCCN1C1O[N+](=C2CCCCC2C1C(C)C)[O-])(c1ccccc1)c1ccccc1 , P212121 ,0,0,1.2162217845299998,0.6806397306399999
4661, KEPZOW , CCOC(=O)C1(C)C(C)OC(=O)N1OC(=O)c1ccc(cc1)N(=O)=O , P-1 ,1,1,1.46265060315,0.7030440967280001
4662, PIDLAP , ON=C1C(=NC(CC(=O)N2CCCC2)(c2ccccc2)C1(O)c1ccccc1)c1ccccc1 , P-1 ,1,1,1.2889305108600002,0.6757241863879999
4663, CEDRUB , CC([C]1C(=O)NC=C1c1cccc(c1)N(=O)=O)c1cccc(c1)N(=O)=O , P-1 ,1,1,1.48041564925,0.719212524141
4664, SIFDIV , CC(C)(C)OC(=O)N1CCCC1NC(=O)ON1C(=O)CCC1=O , P21 ,0,0,1.29758793645,0.654172471689
4665, IROHEE , CN1C([N+](=C(C)c2ccccc12)[O-])c1ccccc1 , P-1 ,1,1,1.31822621204,0.7106131078219999
4668, TOQBEI , Cc1ccnc(NNc2nccc(C)c2N(=O)=O)c1N(=O)=O , P-1 ,1,1,1.59002526104,0.743690702087
4669, TAGYEI , O=N(=O)CC(c1ccccc1)C1=C(N=C2C=CC=CN12)c1ccccc1 , P-1 ,1,1,1.31503393317,0.6746693121690001
4670, QEDWEE , CCOC(=O)C1=NN(C=C1)c1ccc(cc1)N(=O)=O , P21/c ,1,0,1.5148422700600002,0.745013227513
4671, SETPUC , COC1(C)CC2CC1CC(=NNc1ccc(cc1N(=O)=O)N(=O)=O)C2C , P21 ,0,0,1.324959171,0.6720398345849999
4672, NEGWOM , Cc1ccc(cc1)C1(C)CCC(C)(N1[O])c1ccccc1 , P21/c ,1,0,1.16045949479,0.669275433124
4673, CAVPUK , None , C2/c ,1,0,1.65112669442,0.7421727342129999
4674, JEGBOP , COC(=O)c1c2C(=NOc2nc(c2ccc(OC)cc2)c1C(=O)C(=O)Nc1ccccc1)C , P21/c ,1,1,1.3688966989200002,0.676066733512
4675, YOFVUM , Cc1c(C)c2OC(C)(CCc2c(C)c1O)C(=O)NC1CC(C)(C)N([O])C(C)(C)C1 , P21/c ,1,0,1.23940506743,0.694041867955
4676, DEMTUL , CON=C(C(=O)OC)c1cccc2ccc(cc12)C#CC(C)(C)C , P212121 ,0,0,1.1456508231,0.6225820962659999
4677, NEYXIB , CC(=O)OC1COC2C(COC12)OCC1=[N+]([O-])ON=C1c1ccccc1 , P212121 ,0,0,1.40176174258,0.676802102825
4678, HUMYUL , O=C1OC23CC(ON4CCCCC24)C=CC3=C1 , P21 ,0,0,1.33513654615,0.6712461106090001
4679, JABLUW01 , O=N(=O)N1C=CC(=N1)N1C=NN=N1 , P212121 ,0,0,1.6680782536,0.7082791926540001
4680, WAGKEU , CCOC(=O)C#Cc1ccccc1N(=O)=O , P21/c ,1,1,1.42989330477,0.715666886399
4681, CAZBZO12 , [O]N(c1ccccc1)=N([O])c1ccccc1 , Pbcn ,1,0,1.3541584598899998,0.692344853214
4683, MILGAR , COc1ccc(cc1)C(CN(=O)=O)C1(C)N=C(OC1=O)c1ccccc1 , P21/c ,1,0,1.36664514433,0.698098006645
4685, YAXHIQ , CCOC(=O)C1OC(OC1C(=O)OCC)c1ccc(cc1)N(=O)=O , P21 ,0,0,1.4033956348299998,0.676052337245
4686, VEHTOR , CCC1C2C(CCC(=C)C2CC1=NNc1ccc(cc1N(=O)=O)N(=O)=O)C(C)C , P212121 ,0,0,1.24215796134,0.685382822175
4687, XIVBUB , CC1=NOC2=C1C1(C(=O)Nc3ccccc13)C1=C(CCCC1=O)N2 , P21/c ,1,0,1.4151298839200002,0.688648388648
4688, QIKFEV01 , Nc1ccc(cc1)N=[N+]([O-])c1ccccc1 , Pbca ,1,0,1.3649983189100001,0.7130475678579999
4689, YOLXEC , ONC1CCCCCC1NO , P21/c ,1,0,2.01736800645,0.8425212577750001
4690, YEHROV , Nc1ccc(cc1C#Cc1ccc(cc1)C#Cc1cc(ccc1N)N(=O)=O)N(=O)=O , P-1 ,1,1,1.4229253013299998,0.707191572281
4692, HMBFUR , CC1(C)CC(=NO)C2=N([O])ON=C2C1 , P21/c ,1,0,1.41119676753,0.693501566881
4693, ADUKAL , COC(=O)Cc1c(OC)c(cc2c1Oc1c(CN3C(=O)c4ccccc4C3=O)c(OC)c(cc1C2(C)C)c1ccc(C=O)cc1)c1cccc(c1)N(=O)=O , P-1 ,1,1,1.37052645088,0.6808236474330001
4694, SOBXEO , COC(=O)C=C[N+]1([O-])CCCC1C(O)(c1ccccc1)c1ccccc1 , P212121 ,0,0,1.27420313176,0.6783643371879999
4695, CBYMBZ , COC(=O)c1ccc(Cc2c(C)cc(C)cc2C)c(c1)N(=O)=O , P-1 ,1,1,1.27171443451,0.670540935673
4696, MNHCHA , OC(=O)C1(O)CC2CC2(C2CC12N(=O)=O)N(=O)=O , P21/a ,0,0,1.6538015215600002,0.7440816326530001
4697, GAWWAF , CCOC1(C)CC2N(N=C(CC2(C)O1)c1ccccc1)c1ccc(cc1N(=O)=O)N(=O)=O , P21/c ,1,1,1.33812871616,0.661903151249
4699, NITBAL10 , ON=Cc1ccc(cc1)N(=O)=O , P21/c ,1,0,1.46619343221,0.695463709677
4701, ABICUJ , CC1C(CCc2ccccc2)OC(COC(=O)c2cc(cc(c2)N(=O)=O)N(=O)=O)C1OC(=O)c1cc(cc(c1)N(=O)=O)N(=O)=O , P-1 ,1,1,1.4933651896200002,0.700015082672
4702, WOMHEN , O=C(Nc1ccccn1)Nc1ccccc1N(=O)=O , P-1 ,1,1,1.51079823346,0.722807017544
4704, EROBAO , CC(C)(C)O[N]c1c(cc(cc1c1ccccc1)N1C=CN=C1)c1ccccc1 , P21/n ,0,0,1.20046434552,0.652312564442
4705, WAPTEN , COC(C1CC(=NO1)c1ccc(cc1)N(=O)=O)C(C)(C)C , P21/n ,0,0,1.31610812051,0.7046776337649999
4706, VUBZUN , O=N(=O)OC1CN(C1)N(=O)=O , P41 ,0,0,1.66165580611,0.71629771534
4707, DISMUO , O=C(NC1CCCCC1NC(=O)c1ccc(cc1)N(=O)=O)c1ccc(cc1)N(=O)=O , P212121 ,0,0,1.38475843035,0.682112882113
4708, NMALAM01 , NC(O)=C(C(N)=O)N(=O)=O , P212121 ,0,0,1.86278544537,0.780363636364
4709, FIQTUV , COc1ccc(cc1)C(CN(=O)=O)C(N(C1CCCC2(CC3CCC2(C)C3(C)C)O1)C(=O)OCc1ccccc1)C(=O)N(C)C , P212121 ,0,0,1.2830664903,0.69480969697
4711, ZOKDAG , CC(C)(C)NC(=O)C(N1CC(=C)Oc2ccccc2C1=O)c1ccc(cc1)N(=O)=O , P-1 ,1,1,1.2122191139899998,0.619098740202
4712, DAKNIN , CC1CCC(C(C)C)C(C1)OC(=O)OCC1CC1C1CC1COC(=O)c1cc(cc(c1)N(=O)=O)N(=O)=O , P212121 ,0,0,1.3126156406,0.6878343979070001
4713, XEKLOR , O=N(=O)c1ccccc1CN1CN1Cc1ccccc1N(=O)=O , P21/n ,0,1,1.3872962877200001,0.6830485269509999
4714, HAVWIL , CC(C)(O)C(=O)C1CC(N(Cc2ccccc2)O1)c1ccccc1 , P-1 ,1,1,1.2576766712,0.688087663485
4715, FESPOK , Cc1ccc(C)c(c1)C(=O)CC1=NON=C1O , P21/c ,1,0,1.33230947606,0.668995122942
4716, MARXUA , CC(=NO)c1cccc(c1)N=Cc1ccccc1OCCOc1ccccc1C=Nc1cccc(c1)C(C)=NO , C2/c ,1,1,1.3133340158700002,0.6911399711399999
4717, UREAOH12 , NC(=O)NO , P21/c ,1,0,1.62948361289,0.735153439153
4718, TUTFAQ , COC(=O)C(=Cc1c(C)cc(C)cc1C)c1ccccc1N(=O)=O , P-1 ,1,1,1.2922206826,0.685383920506
4719, SAZQIU , O=C1c2ccccc2[N+](=C1c1ccccc1N(=O)=O)[O-] , P-1 ,1,0,1.5061842487900001,0.715604801477
4720, SEMYAL , ON=C(C=O)c1ccc(cc1N(=O)=O)N(=O)=O , Pbca ,1,0,1.6038257188,0.7032570604
4721, DILFUZ , O=N(=O)N(CCN(CC(N(=O)=O)(N(=O)=O)N(=O)=O)N(=O)=O)CC(N(=O)=O)(N(=O)=O)N(=O)=O , P21/n ,0,0,1.87562773312,0.735846994536
4722, LONSOY , O=N(=O)C1C(NC(C1c1ccccc1)c1cccc(c1)N(=O)=O)c1ccccc1 , Pca21 ,0,0,1.29783495134,0.64386541471
4723, JELREX , [O]N1=C(C(=O)c2ccccc12)c1ncccn1 , P21/c ,1,0,1.51075996134,0.727231301069
4724, DAWNAT , CC1CC(O)ON1C(=O)c1c(C)cc(C)cc1C , P21/n ,0,1,1.22284094831,0.665102974828
4725, VUTMEC , CC1=NOC(=C1CCC#N)c1ccccc1 , P212121 ,0,1,1.26505850879,0.6978923048569999
4726, YEFGOG , None , P-1 ,1,0,1.29625376271,0.751466147588
4727, JATKIY , CC(=O)NC1C(COC(N2C=CC=N2)C1=NOC(C)=O)OC(C)=O , P212121 ,0,0,1.3321101941,0.651915632708
4729, KEKRUO , CCOC(=O)C12N3Cc4c(OC)ccc(c4CN1C(=O)N1Cc4c(CN(C3=O)C21C(=O)OCC)c(OC)ccc4N(=O)=O)N(=O)=O , P-1 ,1,0,1.4960061014300001,0.703488016318
4730, SOWXUX , O=N(=O)C1=C(Nc2ccccc2)C2=NON=C2C(=C1)N(=O)=O , P21/n ,0,0,1.62526449389,0.723005401743
4731, NOFBIT , CN1C2=NC3=NON=C3N=C2N=N1[O] , P21/c ,1,0,1.7197074022599999,0.7094931756049999
4732, MENKUM , CC(=O)ON1C(C)(C)CC(C(N)=O)C1(C)C , P21/n ,0,0,1.13716019214,0.627040537374
4733, BEWQEZ , COC(=O)CCC1(CC(=C(C)CC1C(OC(C)=O)C(OC(C)=O)C(OC(C)=O)C(COC(C)=O)OC(C)=O)C)N(=O)=O , P21 ,0,0,1.25613805299,0.636281430219
4734, SEPROV , Cc1ccc(cc1)C(=O)OCC1OC(C(OC(=O)c2ccc(C)cc2)C1OC(=O)c1ccc(C)cc1)N1C=NC(=C1N)C1=NOC(=N1)C , P21 ,0,0,1.31306442181,0.6535255216100001
4735, DOFCUW , OC1(CCc2ccccc2C1=O)c1ccc(cc1)N(=O)=O , P21/c ,1,0,1.42217926149,0.712604303909
4736, XIFGOL , CCCCCCCC(=O)NCC(C(C)C)[N+]([O-])=NO , P212121 ,0,0,1.12390026345,0.641835757291
4737, UDADEJ , ON=C1c2ccccc2C(=O)C23OC(=O)CC2OCC13O , Pbca ,1,0,1.5436607358,0.713411261941
4738, AWEFIR , Cc1cc(C)c(c(C)c1)C1=NOC(C)(O1)C1=C(C#N)C(=NO1)c1c(C)cc(C)cc1C , P21/c ,1,0,1.24569213662,0.6761231493559999
4740, EVIWEM , OC(=O)C(CC1=CNc2ccccc12)N1C(=O)c2cccc(c2C1=O)N(=O)=O , P21 ,0,0,1.5005392864200002,0.703795017898
4741, GILWAC , CC(NC(=O)OC(C)(C)C)C1=NOC=C1C1=Nc2ccccc2O1 , P21 ,0,0,1.25588778732,0.639539782855
4742, ZEVQUM , O=N(=O)C1CN(C1)N(=O)=O , Pnma ,1,0,1.6221125254100002,0.714412360689
4745, TEDROL , CN(N)N=O , P21/c ,1,1,1.4043514625,0.704963466868
4746, YAWNER , CC1=NN(C(=C1)C)c1ccc(cc1)N(=O)=O , Pca21 ,0,0,1.40147500713,0.720909360629
4747, NUPNIW , O=C(Oc1ccc(cc1)N(=O)=O)c1cccc2ccccc12 , P21/c ,1,1,1.44461175937,0.71610945665
4748, PABTES , COCOC1Oc2cc(OC)ccc2N(O)C1=O , C2/c ,1,0,1.4898930378,0.719076270257
4749, KODJAO , OC(=O)C=Cc1ccc(cc1N(=O)=O)N(=O)=O , P21/n ,0,0,1.63688974131,0.7432138284250001
4752, BEMPUE , CC(=O)OC1CC2CC(C)(C)C32C(COC(=O)c2ccc(cc2)N(=O)=O)C13C , P21/a ,0,0,1.28265422845,0.667615776311
4754, TALDAO , OCC1CC(C(O)C(O)O1)N(=O)=O , P21 ,0,0,1.5983482193,0.7480563654029999
4756, HUCTEF , COc1cc(cc(OC)c1OC)C1=[N+]([O-])C(C)(C)C(C)(C)N1[O] , Pbca ,1,0,1.26417814444,0.6662026575069999
4757, PENPUU , OC(=O)C(O)=Cc1ccc(cc1)N(=O)=O , P21/c ,1,1,1.61432102752,0.74538301236
4758, ZIBPOP , CC1CC2OC3CC4OC(C)(C)OCC4OC3(C)CC2OC2CCC(C)(OC12)C1CC(OC(=O)c2ccc(cc2)N(=O)=O)C(C)(CC2OC2(C)C=C)O1 , P212121 ,0,1,1.2581187093600001,0.657448257081
4759, UPUYIO , COC1=NC(C(=NC1C(C)C)OC)C(C)(O)C1CC(=NO1)C , P212121 ,0,0,1.24071288959,0.674519387423
4760, GECZAR , CC1(C)CC(=O)C2=C(C1)N(C(=O)c1ccccc21)c1cccc(c1)N(=O)=O , P21/c ,1,0,1.34274558221,0.6680037234489999
4761, IVAHAQ , O=N(=O)c1ccc(cc1)C1=C2C=CC(=N2)c2ccccc2C2=CC=C(N2)C(=C2C=CC(=N2)c2ccccc2C2=CC=C1N2)c1ccc(cc1)N(=O)=O , C2/c ,1,1,1.3258952825299999,0.658542905692
4763, OMOMOS , NN=Cc1ccc(cc1)N(=O)=O , Pc ,0,0,1.50747128405,0.742936066127
4765, OKIPON , C1CC2CON=C2C2(C1)CCCC1CON=C21 , Pca21 ,0,1,1.30205557812,0.712794281592
4766, HEJLEQ , CC(c1ccc(cc1)N(=O)=O)=C(C(=O)c1ccccc1)C(=O)c1ccccc1 , P-1 ,1,1,1.30015862223,0.667749900438
4767, ATUSAL , O=N(=O)c1ccc(cc1)N(c1ccccc1)c1ccc(cc1)c1cc(nc(c1)c1ccccn1)c1ccccn1 , P21/c ,1,0,1.29711609613,0.665097489316
4768, NIHBEN , Cc1ccc(cc1)C1=[N+]([O-])C(C)(C)Cc2ccccc12 , P21/c ,1,0,1.2179439617299999,0.6786834359110001
4769, QORQUK , O=N(=O)C(CNN1N=NN=C1NCC(N(=O)=O)(N(=O)=O)N(=O)=O)(N(=O)=O)N(=O)=O , P21/c ,1,0,1.8964451557799997,0.744858934169
4770, AHETUD , CCC1ON2CCc3ccccc3C2C1C#N , P21/c ,1,0,1.27444174659,0.7038155802860001
4771, HEDHEG , CCOC(=O)C=CN1OC(=O)c2c(C)cc(C)nc12 , P21/c ,1,0,1.34077547989,0.6841909413339999
4772, JIXVAO , Cc1ncc2COC(C)(C)OCc2c1OC(=O)c1ccc(cc1)N(=O)=O , P21/n ,0,0,1.38589507889,0.689541569542
4774, ZORJEV , CC1=C(C)C2(C)ON(=C(C(C1N(=O)=O)C2N(=O)=O)N(=O)=O)[O] , Pbca ,1,0,1.6306168581099998,0.7156279210009999
4775, ETHBSD , O=C1O[N]N(=C1)CC[N+]1=NOC(=C1)[O-] , Fdd2 ,0,0,1.63291869857,0.727412141205
4776, TMOBUT , CC1(C)CC(O)(CCCCC2(O)CC(C)(C)N([O])C(C)(C)C2)CC(C)(C)N1[O] , P21/a ,0,0,1.0749341056100001,0.627416328754
4777, HOXROC , O=C1OCC2OC(OC2C1OC(=O)c1ccc(cc1)N(=O)=O)c1ccccc1 , P212121 ,0,0,1.52018026317,0.7238454592360001
4778, ITUNUI , CC1(C)CC(CC(C)(C)N1[O])N=C=NC12CC3CC(CC(C3)C1)C2 , P-1 ,1,1,1.1954715408399998,0.6853140973899999
4779, UGUGUY , O=N(=O)C12C3C4(C1C1(N(=O)=O)C2(N(=O)=O)C3(N(=O)=O)C41N(=O)=O)N(=O)=O , Pnma ,1,0,1.86469454313,0.776079734219
4780, RUCPIQ , COC(=O)C1=C2C=CC=C3N2C(=C1C(=O)OC)C(=C3c1ccc(cc1)N(=O)=O)c1ccc(OC)cc1 , P-1 ,1,1,1.4351569983,0.702860169492
4781, DUFKIY , COC12OC(C(=O)c3ccccc13)C1(O2)C2OC(OC)(N(C2=O)c2ccc(cc2)N(=O)=O)c2ccccc12 , P212121 ,0,0,1.4942106458000002,0.710943411523
4784, VENKOP , COc1ccc(cc1)N=CC=Cc1ccccc1N(=O)=O , P21/c ,1,0,1.32890302965,0.6819747539579999
4785, YOHLIS , CC(=O)C(COc1ccc(cc1N(=O)=O)N(=O)=O)=Cc1ccccc1 , P21/c ,1,1,1.3993074987399998,0.683065652296
4787, NTROMA05 , CN(=O)=O , P212121 ,0,0,1.53897978253,0.702117837152
4788, NAJKOB , Cc1ccc(cc1)C1=NOC(=N1)CN1C=CC(=O)N(CC2=NC(=NO2)c2ccc(C)cc2)C1=O , P-1 ,1,1,1.3885732012600003,0.682101789305
4789, NMALAM , NC(O)=C(C(N)=O)N(=O)=O , P212121 ,0,0,1.78003278841,0.752185159973
4791, DEHPAK , Oc1c(C=NOCc2ccccc2)c(O)c(C=NOCc2ccccc2)c(O)c1C=NOCc1ccccc1 , I-4 ,0,0,1.3738136632,0.700797164562
4793, FESNEW20 , COc1ccc(cc1N(=O)=O)N(=O)=O , P21/n ,0,0,1.6305521783599999,0.7429684601109999
4794, NAMPUO , COC(=O)C1NOC2CCCC12 , Pna21 ,0,0,1.3581543955000002,0.720550073099
4795, CUTYAS , O=CC(Cc1ccccc1)C(CN(=O)=O)N1C(=O)c2ccccc2C1=O , P212121 ,0,0,1.36992817278,0.674044795784
4796, UXAFIK02 , CC12C(C(C(C(N(=O)=O)C1(O)CCC2=O)c1ccccc1N(=O)=O)N(=O)=O)c1ccccc1N(=O)=O , P212121 ,0,0,1.54430320091,0.725651757386
4797, AKAVAK , O=C(CC(CN(=O)=O)C=Cc1ccccc1)c1ccccc1 , P212121 ,0,0,1.2703801456700001,0.687864326765
4798, IBETAK01 , O=C1CCCCC2=CCON1C2 , C2/c ,1,0,1.3197153941,0.720397242962
4800, BISKET , O=NN(c1ccccc1)c1ccccc1 , C2/c ,1,0,1.2515102824200002,0.6899271884289999
4802, QOHSOW , CCC1(CC)C2=CC=C(N2)C(CC)(CC)C2=CC=C(N2)C(C)(C2=CC=C(N2)C(CC)(CC)C2=CC=C1N2)c1cccc(c1)N(=O)=O , P21/c ,1,0,1.20012560177,0.663704937757
4804, HAMQOC , [O-][n+]1ccccc1c1cccc([n+]1[O-])c1cccc[n+]1[O-] , P43212 ,0,0,1.49873066736,0.734867692308
4806, QEKQUS , C1CC2(CCC3CON=C23)C2=NOCC12 , Pccn ,1,1,1.36923275616,0.712428196803
4808, IPUNOY , CC1C(N(OCc2ccccc2)C1=O)C(=O)c1ccccc1 , P-1 ,1,1,1.2682445306399999,0.675601446252
4809, MOPRAL , CC(C)(C)C(CN(=O)=O)C(=O)c1ccc2OCOc2c1 , P212121 ,0,0,1.37994540426,0.7112816091949999
4810, CIGSUH , O=N(=O)c1ccc(C=Cc2ccnc(c2)c2ccccc2)cc1 , P21 ,0,1,1.3947900664500001,0.7265165926870001
4811, VAZBOP , O=N(=O)C(CNN1C=NN=N1)(N(=O)=O)N(=O)=O , P21/c ,1,0,1.8251897533700001,0.729213385485
4813, YOHCII , COC(OC)C(C)(C(O)c1ccc(cc1)N(=O)=O)c1ccc2ccccc2c1 , P-1 ,1,1,1.27113823438,0.673695030141
4814, ZAXPOG , ON=Cc1ccc2OCCOCCOCCOCCOCCOc2c1 , Fdd2 ,0,0,1.3732433519100002,0.725294865552
4815, FIZFOL , CCOc1cc(ccc1O)C=NNc1ccc(cc1N(=O)=O)N(=O)=O , P21/c ,1,1,1.49214108848,0.711738659381
4816, ININIC , CC(=O)OCC1OC(=O)C2C3CCCN3OC2C1OC(C)=O , I2 ,0,0,1.4499343484799998,0.68197273733
4817, EWACEK , O=N(=O)c1ccc2N3CN(Cc2c1)c1ccc2N4CN(Cc2c1C3)c1ccc(cc1C4)N(=O)=O , C2/c ,1,0,1.44668097805,0.692702714851
4818, VIJWEQ , OC1c2ccccc2C2=C1N=C(c1ccccc1)C1=NON=C21 , P21/n ,0,0,1.4699437552799999,0.716267058483
4819, LOCVEE , CC1=CC=C(C2=NON(=C12)[O])N(=O)=O , Pbca ,1,0,1.68193000191,0.756703078451
4821, CURNIO , O=C(NCC1=CC=CO1)C(=Cc1cccc(c1)N(=O)=O)C#N , P-1 ,1,1,1.42257265097,0.695259784076
4822, LEVNUW01 , O=N(=O)c1ccc(NCc2ccncc2)cc1 , Pn ,0,0,1.37602255375,0.695177001663
4823, VECBOU , CC1(COCOC1=O)NC(=O)c1ccc(cc1)N(=O)=O , P21/c ,1,0,1.46665831185,0.640376548629
4824, UHUJAK , O=C(Nc1ccccc1N(=O)=O)C1=COc2ccccc2C1=O , P21/c ,1,0,1.59295280478,0.7562452417209999
4825, VAWDOO , CC1=CC(O)(C(C1c1ccccc1)N(=O)=O)C(=O)OC(C)(C)C , P-1 ,1,1,1.29205221434,0.6813901132
4826, XICLAX , NC(=O)C1CCCN1c1ccc(cc1)N(=O)=O , Pbca ,1,0,1.4068493269,0.704609295199
4827, HUQQOA , CC(C)(C)N1C(=O)NC(=O)C(=Cc2cc(ccc2N2CCOCC2)N(=O)=O)C1=O , P-1 ,1,1,1.44163925162,0.708855261314
4828, BEBWEK , CC(=O)C(=C)OC(=O)c1ccc(cc1)N(=O)=O , P21 ,0,0,1.4307945496799999,0.694442873303
4829, WUFNUI , O=C(CCc1ccccc1N(=O)=O)ON(C(=O)c1ccccc1)c1ccccc1 , P21/n ,0,0,1.3644136659000001,0.6908500787549999
4830, UWIRID , O=CC(C(CN(=O)=O)c1ccccc1)c1ccccc1 , Pn ,0,0,1.28604061692,0.678172255095
4832, TECVOM , COC(=O)c1c2CCc3cc(CCc1cc(c2)C(C)(C)C)cc(c3)N(=O)=O , P21/n ,0,0,1.25787845871,0.667805513784
4834, YAYCIM , O=N(=O)c1ccc(cc1)N1CCOCC1 , Pbca ,1,0,1.3973681203,0.703148616613
4835, UPOJOA , COC(=O)C=COc1c(OC)cccc1C1OC2(C(C1c1ccccc1)N(=O)=O)C(=O)N(Cc1ccccc1)c1ccccc21 , P21/c ,1,0,1.3587817013499999,0.687398228683
4836, JEYKAC , COC(=O)C(C)(NC(=O)c1ccc(cc1)N(=O)=O)C(C=C)c1ccccc1 , P21 ,0,0,1.3581752185,0.7064461977509999
4837, JOPXUJ , Cc1cccc(C(=O)Oc2ccccc2)c1c1ccc2N3CN(Cc2c1)c1ccc(cc1C3)N(=O)=O , P21/c ,1,0,1.38541337587,0.705726735138
4838, JADXER , CC1(C)OCC(O1)C1OC(C)(C)OC1C1OC1N(=O)=O , P212121 ,0,0,1.34573360806,0.654050736498
4839, YODZIA , COC(=O)CN1N=C(C(=O)OC)C(=N1)C(N(=O)=O)(N(=O)=O)N(=O)=O , P21/n ,0,0,1.56283285553,0.632097562997
4841, YUHTOK , O=C1N(OCC#C)C(=O)c2ccccc12 , P21/a ,0,0,1.40341718593,0.6992496392499999
4842, IBABUJ , COC(=O)C=C1ON2C(CCC2(C)c2ccccc2)C1C(=O)OC , Pbca ,1,0,1.31120582676,0.6847300337459999
4843, ZAKWIU , COC(=O)C1=C(C)OC(=C(C#N)C1c1ccccc1N(=O)=O)N , C2/c ,1,1,1.41878378069,0.690301514154
4844, SOYJEW , CC(C)(C)Nc1ccc(cc1N(=O)=O)C(O)=O , C2/m ,1,1,1.39616411799,0.7024936803990001
4845, DOXVIX , CC1(C)c2ccccc2N2C(C3CC12Oc1ccc2cc(ccc2c31)N(=O)=O)C(=O)NCc1ccccc1 , P21/a ,0,1,1.34006539177,0.685300081717
4846, WAMTOU , C1CNC(N1)=NOCc1ccccc1 , Pbca ,1,0,1.2744439461700001,0.6881761526279999
4847, XOZZAP , O=N(=O)c1ccc(CON=Cc2ccccn2)cc1 , P212121 ,0,0,1.3345495249700001,0.666480179028
4848, MAGHEI , CCCC1(CCC)c2ccccc2N([O])c2ccccc12 , P212121 ,0,0,1.13731017476,0.659399616777
4849, ERIVAC , OC(=O)C1CCN1N=O , P212121 ,0,0,1.5066972669299998,0.705414438503
4850, TATGOM , O=N(=O)c1ccc(OCc2cc3OCCOCCOCCOCCOc3cc2COc2ccc(cc2)N(=O)=O)cc1 , P21/c ,1,0,1.40921637865,0.688183571591
4851, DALTUG , ON=C1c2c3ccccc3ccc2c2ccc3ccccc3c12 , P21/n ,0,1,1.43403475553,0.7429937022040001
4853, JUBCIS , CCOC(=O)c1ccccc1NN=[N+](C)[O-] , P21/c ,1,1,1.3359047092799998,0.6891675718379999
4854, NUXYAI , CC[N+]([O-])(CC)CC(O)CO , P21/n ,0,0,1.27211340785,0.7523671565860001
4855, TUWLUS , O=C1N(CC2CC3N(O2)c2ccccc2Cc2ccccc32)C(=O)c2ccccc12 , P21nb ,0,1,1.3612715480200002,0.690819908126
4856, JAKWEX , CCOC(=O)C(CCCCCCCCCOc1ccc(cc1)N=Nc1ccc(cc1)N(=O)=O)C(=O)OCC , P-1 ,1,0,1.22990060096,0.58581983518
4857, REBTEY , O=N(=O)c1cccc(C=NN=Cc2cccc(c2)N(=O)=O)c1 , P21/c ,1,0,1.5664337846599998,0.767127564674
4858, FELCAC , C1ON(CC(=C1)C1=C2CN(OCC2ON(C1)c1ccccc1)c1ccccc1)c1ccccc1 , P-1 ,1,0,1.30471110749,0.6873849607179999
4859, HOYBON , CC(C)(C)ON1C2CCCN2C(=O)C2=C(CCCC2)C1=O , P21/c ,1,1,1.29798493736,0.71442210272
4860, IWANUP , CC1N2C(c3ccc(cc3)N(=O)=O)C(C)(c3ccccc3)C2=Nc2ccccc12 , Pbca ,1,0,1.24530951526,0.645421975285
4861, CUKCAM16 , OC(=O)c1cc(cc(c1)N(=O)=O)N(=O)=O , C2/c ,1,0,1.68350967413,0.7255224559810001
4863, NAKJIT , COC1=NC2=NON(=C2C(N1)C(C)(C)C(=O)OC)[O] , P21/c ,1,1,1.47299968164,0.6997210439830001
4865, XADJET , CCN1C(=O)C(=C2Nc3ccccc3C2=NO)c2ccccc12 , P21/n ,0,0,1.4528484121399998,0.7478982597050001
4867, RIRGAA , N1C2=NON=C2NC2=NON=C12 , Pc ,0,0,1.99428163402,0.7855089882940001
4868, CACNEA , COC(=O)C(=C)OC(=O)c1ccc(cc1)N(=O)=O , C2/c ,1,0,1.47080723212,0.703217950254
4869, BUWQIT , CC(NC(=O)OCc1ccccc1)C1C(N(Cc2ccccc2)C1=O)c1ccc(cc1)N(=O)=O , P212121 ,0,0,1.26833358932,0.655901586358
4872, ISORAK , CC(ON1C(C)(C)CCCC1(C)C)c1nc(c(C)c2ccccc12)c1ccccc1 , P-1 ,1,1,1.2077769297299998,0.692703382723
4874, FESNIA01 , COc1c(cccc1N(=O)=O)N(=O)=O , Cc ,0,1,1.57636105213,0.731068493151
4875, FEFLIO , CCOC(=O)C1=C2N(C(=CC=C2CC)C)C(=C1)C(=O)C1=[N+]([N-]OC1=O)c1ccccc1 , P-1 ,1,1,1.4095738682199999,0.7138447971780001
4876, TENZOD , NN1N=C(C(=N1)N(=O)=O)N(=O)=O , P21/c ,1,0,1.86793615708,0.7401385124959999