ID,name,smiles,space_group,inversion_symmetry,beta_packing,density,packing_coefficient
1391, YUCWUQ , CCOC(=O)C(=O)C1=C(NC=C1c1ccccc1)c1cccc(c1)N(=O)=O , P-1 ,1,1,1.37197414555,0.6868436557719999
1392, PADXOJ , OC(C1CCCCC1=O)c1ccc(cc1)N(=O)=O , P212121 ,0,0,1.3551114646200002,0.7080050505050001
1393, RAQVAJ , CCOC(=O)C1=NN(c2ccccc2)C(=C1C(CN(=O)=O)c1ccccc1)OC(C)=O , P21 ,0,1,1.3421045676299999,0.6709584196
1394, WEHLOL , CCOC(=C)C1N(O)C2CCCCC2N1O , P21/n ,0,0,1.25711045121,0.691679554593
1395, UMAQOO , CC1(C)CC(C)(C)[N+](=C(N1[O])c1ccccc1)[O-] , P21/n ,0,0,1.24076535737,0.685829439252
1397, NETKII , O=C(ON=C1CCCCC1)c1cccc(c1)N(=O)=O , P21/c ,1,0,1.46508673713,0.7426042486229999
1398, EWEHIY , CC(OC(=O)c1ccc(cc1)N(=O)=O)C1CC(=O)C=CN1CC=C , C2/c ,1,0,1.36301656902,0.704836842283
1399, SENVUE , COc1cc(C(O)C(C)C=C(C)C(=O)N2C(COC2=O)Cc2ccccc2)c(OC)c(c1)N(=O)=O , P212121 ,0,0,1.29144905358,0.664999438013
1400, CUKCAM11 , OC(=O)c1cc(cc(c1)N(=O)=O)N(=O)=O , P21/c ,1,0,1.6655993250499999,0.714052287582
1401, AWIZUD , O=N(=O)c1ccc(cc1)C(c1ccccc1)=C(c1ccc(cc1)N(=O)=O)c1ccc(cc1)N(=O)=O , P21/n ,0,0,1.13997949584,0.562691500928
1402, CACXOV , COC(=O)c1ccc2C(=O)C3(CCCO3)ONc2c1 , P21/n ,0,0,1.32896841991,0.665220408568
1403, TAWDIG , CON(OCc1ccc(cc1)N(=O)=O)C(=O)c1ccccc1 , P21/c ,1,0,1.401294084,0.69908045977
1404, JEKKUI , Cc1nc(N=Nc2ccccc2)c(cc1N(=O)=O)N(=O)=O , Cc ,0,1,1.51860483212,0.714612616492
1405, WIFQUY , O=C1OCCC(=C1)CCCCOCC(Cc1ccccc1)=NNc1ccc(cc1N(=O)=O)N(=O)=O , P21/c ,1,0,1.33948524635,0.690829131653
1406, ROGTIS , COC1OC2COC(C)OC2C(ON(=O)=O)C1O , P212121 ,0,1,1.4843138984399997,0.69516775495
1407, MUKHEG , CC(=O)C1C2CCCC(C(C1N(=O)=O)C1=CC=CO1)C2=O , P21/c ,1,0,1.33608325456,0.670446604409
1408, WEZQIE , CCC1=[N+]([O-])C(CC)(CC)C(CO)C1CO , Pbca ,1,0,1.1616730227299998,0.658838526072
1409, ZEXVIH , CN1C=CN=C1C(C1COC(C)(C)O1)N(O)Cc1ccccc1 , P212121 ,0,0,1.2100436174200002,0.642221859203
1410, IHETEU , CN(c1ccccc1)C(=O)c1c(cc(cc1N(=O)=O)N(=O)=O)N=Nc1ccccc1 , P21/c ,1,0,1.38213848926,0.6715462397640001
1411, NOFNIH , Cc1ccc(c2cc(C)c(O)c(C)c2C)c(c1)N(=O)=O , P-1 ,1,1,1.26939344865,0.6789451827240001
1412, OCHTET19 , O=N(=O)N1CN(CN(CN(C1)N(=O)=O)N(=O)=O)N(=O)=O , P21/n ,0,1,1.9288149209299998,0.784960166778
1413, PCHSYD10 , O=C1O[N-][N+](=C1C1=CCCCC1)c1ccccc1 , P21/c ,1,0,1.2909854486799999,0.678175217455
1414, EHEMIP , COC(=O)C1CC=C2CC(C(C3C2C1CN3Cc1ccccc1)N(=O)=O)c1ccccc1 , Pna21 ,0,1,1.28209053988,0.6752842983830001
1415, VAZMEO , CC(C)(C)C1=CC(C)(C(N(=O)=O)C(C)(Cc2ccccc2)C1=O)N(=O)=O , P21/a ,0,0,1.27964769264,0.680095332018
1416, OGUBUO , Cc1cc(ccc1C1=C2COCC(N2N=N1)c1ccccc1)N(=O)=O , Pbca ,1,0,1.3879241005399998,0.696132222448
1417, IYOHIP , CC(=O)C1C(C(C(C(C=O)C1(C)O)c1ccccc1)N(=O)=O)c1ccccc1 , P212121 ,0,0,1.28652174518,0.6736349342479999
1418, WUGHOX , NC1=C(C#N)c2ccccc2C2=C(N=NN12)c1ccc(cc1)N(=O)=O , C2/c ,1,0,1.44997169576,0.703183777429
1419, VOBTOV , None , Pbca ,1,0,1.22057238448,0.6835246598639999
1421, XIQQOG , O=N(=O)c1cccc(c1)c1ccccc1c1nc2ccccc2nc1c1ccccc1 , P21/c ,1,0,1.3565346127700002,0.695399569402
1422, JOWSAR , OC(=O)c1ccccc1N=Cc1cc2OCOc2cc1N(=O)=O , P21/c ,1,0,1.6095133972,0.778459074393
1423, COCRAP , CCOC(=O)C1C(N1C1OC(COC(=O)C(C)(C)C)C(OC(=O)C(C)(C)C)C(OC(=O)C(C)(C)C)C1OC(=O)C(C)(C)C)c1ccc(cc1)N(=O)=O , C2 ,0,0,1.19618525566,0.637187043967
1424, CEJMAF , ON=C(C#N)c1ccccn1 , P21/c ,1,0,1.4367430022999998,0.713613636364
1427, IRUQIX , O=C1NC(NN=C1CN(=O)=O)=NN(=O)=O , P21/c ,1,0,1.86557795338,0.7661216533399999
1428, BAXBAE , CC(C)C1N(N=O)C(=O)OC1(c1ccccc1)c1ccccc1 , P212121 ,0,0,1.19905347795,0.6381903642769999
1429, CUFZIM , CC12C3(N(=O)=O)C4(N(=O)=O)C1(N(=O)=O)C1(N(=O)=O)C2(N(=O)=O)C3(N(=O)=O)C41N(=O)=O , P21/m ,0,1,1.8196133881799998,0.697200447928
1430, YIFPEJ , O=N(=O)c1cccc(C=NCCCN=Cc2cccc(c2)N(=O)=O)c1 , Fdd2 ,0,0,1.38950334199,0.7078534798530001
1432, WAHLEW , CN1C2CCCCC2OC1c1ccc(cc1)N(=O)=O , P212121 ,0,0,1.27953068283,0.666746833414
1433, IVAGUH , OCC1(COC1)CON(=O)=O , P21/n ,0,0,1.5241111520100001,0.7202138437989999
1434, MPHFRN , O=C1OC(C(C(=O)N2CCOCC2)C1=C(c1ccccc1)c1ccccc1)c1ccc(cc1)N(=O)=O , Pbca ,1,0,1.35821640247,0.693356053359
1435, HUMPOU , CCC(NC(=O)OC(C)(C)C)C(=O)N(C)OC , P212121 ,0,0,1.19422323826,0.665843137255
1436, YANWAN , O=N(=O)N1CNC(NC1)=NC1=NC(=NO1)N(=O)=O , P-1 ,1,1,1.7747502586300001,0.7262961647730001
1438, FUPVUH , CCOC(=O)C1CC2=C(Nc3ccccc23)C2CC(ON12)C(=O)OC , P21/c ,1,0,1.32163507112,0.6736587846430001
1439, BACTEF , CC1=C2CC(NC(=O)C2=NO1)C#N , Pbca ,1,0,1.47403305709,0.721699574139
1440, GOJWEJ , COC(=O)CC1C(=O)N(C(=O)C1(Cc1ccccc1)N=Cc1ccccc1N(=O)=O)c1ccccc1 , P21/n ,0,1,1.3530293233500001,0.6856446468080001
1442, REPXUG , Cc1nc2ccccc2nn1[O] , P21/c ,1,1,1.47211273623,0.7313908395350001
1443, URERUG , CC1(C)C(=NOC1(O)C(=O)c1ccccc1)c1ccccc1 , P32 ,0,0,1.2541556416500002,0.659475634084
1444, SESKAD , CN1CC(=Cc2ccc(C)cc2)C(=O)C2(C1)C(ON(C2c1ccccc1)c1ccccc1)c1ccc(C)cc1 , P21/c ,1,0,1.21599635714,0.668601735566
1445, TEBLES , CON=[N+]([O-])C1OC(COC(=O)c2ccccc2)C(OC(=O)c2ccccc2)C(OC(=O)c2ccccc2)C1OC(=O)c1ccccc1 , P212121 ,0,0,1.29448687471,0.638537093324
1447, NAMLUL , CCc1ccc(cc1)N=Nc1cc(OC)c(O)c(C=NO)c1 , P21/c ,1,0,1.28945675631,0.66464639346
1448, XAFVIK , COC(=O)C(C)N1C(Nc2ccccc2C1=O)c1ccccc1N(=O)=O , P21 ,0,0,1.39981389834,0.699733285917
1449, IFIKUF , O=N(=O)c1ccc(cc1)c1ccccc1c1ccccc1c1ccccc1c1ccccc1c1ccc(cc1)N(=O)=O , P-1 ,1,1,1.34490611671,0.693763073817
1450, NPHDZB01 , CCC=NNc1ccc(cc1N(=O)=O)N(=O)=O , P21/c ,1,1,1.45488458323,0.690464027246
1451, QUJNOZ , CC(C)(C)OC1CN2OC3COC(=O)C3C2C1OC(C)(C)C , P212121 ,0,0,1.2009314836299998,0.648391102473
1452, ZOPZEL , CCOC(=O)C1(C(CON2C(C)(C)CCCC2(C)C)CC(C1c1ccccc1)C(=O)c1ccccc1)C(=O)OCC , P21/n ,0,0,1.1762223357700001,0.6537912326699999
1453, UGAVUW , O=N(=O)N1CNC(NC1)=C(N(=O)=O)N(=O)=O , Pnma ,1,0,1.7734941698500002,0.7795799771969999
1454, XILXOI , O=C1N(C=C(C=C1N(=O)=O)N(=O)=O)C(CCc1ccccc1)C#C , P21 ,0,0,1.4646628896899998,0.7217104919230001
1455, ZEBBEQ , OC1ON(C(O)c2ccccc2N(=O)=O)c2ccccc12 , Pbca ,1,0,1.4390668054,0.688892098801
1456, ACNTBP , CC(=O)c1ccc(cc1)c1ccccc1N(=O)=O , P21/c ,1,1,1.33912011114,0.694480020492
1457, KELJOD , CC1(C)N([O])C(=N([O])C1(C)C)c1cc(cc(c1)C1=N([O])C(C)(C)C(C)(C)N1[O])N1C=CC(=O)C=C1 , P-1 ,1,1,1.33348142332,0.6910327873540001
1458, BUDVEC , CC=CC=NNc1ccccc1N(=O)=O , P-1 ,1,1,1.29904015244,0.665621734587
1459, NUZGAQ , CC1CCC(C(C)C)C(C1)OC1ON=C(C=C1)c1ccccc1 , P21 ,0,1,1.13675503691,0.6514072338310001
1464, LESGOH , Cc1ccccc1C1ON=C2c3ccccc3OCC12C#N , Pca21 ,0,0,1.33921557919,0.687934326079
1465, LITPOU , O=N(=O)c1ccc(NN=C2CCC32CCCC23CCCC32CCCC3)c(c1)N(=O)=O , P-1 ,1,1,1.32199844441,0.685710220659
1466, MAYXOZ , CC1(C)N([O])C(C)(C)c2cc(ccc12)C(O)=O , P212121 ,0,0,1.23129363971,0.657390648567
1468, HENKIU01 , CC(=O)C(=NNc1ccc(cc1)N(=O)=O)C(C)=O , P21/n ,0,0,1.45339259188,0.71016292735
1469, TOFNAD , CC1=C(C)C(C)(C(=CC1C(N(=O)=O)(N(=O)=O)N(=O)=O)C)N(=O)=O , C2/c ,1,0,1.55636440399,0.7274592877
1470, XOCDAU01 , CC1(C)N(=C(C#N)N(=O)C1(C)C)[O] , P-421m ,0,0,1.27585007239,0.655754218081
1471, ZEHDAT , O=NC1(CCCCC1)N1N=C2C=CC=CC2=N1 , P21/c ,1,0,1.34912483856,0.725770078252
1473, SINZEW , Oc1cc(O)cc(c1)C(=O)NN=Cc1ccc(cc1)N(=O)=O , P21/c ,1,1,1.53817042611,0.729415904293
1474, XAKMAY , CN(C)CCNc1ccc(cc1N(=O)=O)N(=O)=O , P-1 ,1,1,1.4433073314700002,0.710517120894
1475, KIHXEG , [O]N1=C(C(=NC21CCCCC2)c1ccccc1)c1nc(nnc1c1ccccc1)c1ccccc1 , Pna21 ,0,0,1.231039783,0.639122050817
1476, HAPQIA , CC1(C)N([O])C(=N([O])C1(C)C)C1=Nc2ccccc2N1 , Pbca ,1,0,1.4283795620700002,0.7502372849969999
1478, QQQAZG31 , CC(=O)C(=NNc1ccc(C)cc1N(=O)=O)C(=O)Nc1ccccc1 , P21/n ,0,1,1.4329685047299998,0.7279293266769999
1480, SOXBEM , C1CC21CC(=NO2)c1ccccc1 , P21/n ,0,0,1.25784091797,0.712293090927
1481, JAQZIN , NN1C2=NON=C2C2=NON=C2C2=NON=C12 , Pbca ,1,0,1.80816054403,0.72834717366
1482, OXALIN02 , CON1c2ccccc2C2(C=C(OC)C(=O)N3C(=CC4=CN=CN4)C(=O)NC123)C(C)(C)C=C , P212121 ,0,0,1.3231942022,0.670034178933
1483, KIZCUT , O=C(NN(=O)=O)OCC(N(=O)=O)(N(=O)=O)N(=O)=O , P21/c ,1,0,1.7294034535099998,0.6641123882500001
1484, SEFTOP , CC(C)(C)OC(=O)N1CC(=C1c1cccc(c1)N(=O)=O)C#Cc1ccccc1 , C2/c ,1,0,1.28734256971,0.671201975309
1485, NEWHEF , O=C(OCC1OC(ON(=O)=O)C(OC(=O)c2ccccc2)C(OC(=O)c2ccccc2)C1OC(=O)c1ccccc1)c1ccccc1 , P21 ,0,0,1.24746805574,0.6604627133869999
1486, GIHFEI , O=C1c2cc(cc(C#N)c2c2c1cc(cc2N(=O)=O)N(=O)=O)N(=O)=O , P1121/n ,0,0,1.69954596248,0.736670918367
1487, KOFKAR , O=N(=O)N1CCCN(C1)N(=O)=O , P21/c ,1,0,1.57186683958,0.7061306283140001
1488, GAMSEV , O=N(=O)C(CNc1nc(N=[N+]=[N-])nc(N=[N+]=[N-])n1)(N(=O)=O)N(=O)=O , P21/n ,0,0,1.7429142704099998,0.697893772894
1489, WEHKIE , CC1(C)N(=C(C2=CC(=NN2)C2=N([O])C(C)(C)C(C)(C)N2=O)N(=O)C1(C)C)[O] , P21/c ,1,1,1.31772988165,0.6803469754289999
1490, BEGDUN , Cc1ccc2cc(ccc2c1)C1=[N+]([O-])C(C)(C)C(C)(C)N1[O] , P212121 ,0,0,1.2550976693200002,0.679917169871
1491, KUKFUS , OCC1CCCC21CCCC(CC(O)c1ccccc1)N2O , P-1 ,1,1,1.2312974345299998,0.6851068257490001
1492, HEDCOL , CC=CC=CC1OC(C)(C)C(=O)N1OCc1ccccc1 , P21/c ,1,1,1.13271292584,0.618469846985
1493, TICYIN , O=N(=O)c1ccc(C=Cc2ccc(cc2)C#C)cc1 , P21/a ,0,0,1.29386747777,0.689509136988
1494, GEZBEV , C=CC1(COC2Oc3ccc(cc3C(=O)C12C#N)N(=O)=O)c1ccccc1 , P212121 ,0,0,1.42708272757,0.695588235294
1495, POQSIY , COc1ccc2C3CCC4(C)C(=O)C5CC4(CC5=NOC(C)=O)C3CCc2c1 , P31 ,0,0,1.27695400198,0.676922292663
1498, YUJLIY01 , COC1COC(C1OC(=O)c1ccc(cc1)N(=O)=O)C(=C)OC(=O)N(C(C)C)C(C)C , P21 ,0,0,1.2908038148899998,0.6001797835989999
1499, POJTIR , None , C2/c ,1,1,1.51968517378,0.7512282342129999
1501, XESSAS , O=C(OCc1ccccc1)C1CC(OC(=O)c2cc(cc(c2)N(=O)=O)N(=O)=O)C=C1 , P21/c ,1,0,1.4725205294100001,0.711772786037
1504, BAQMAH , CC(=O)CC(C(C1OC(COC(C)=O)C(OC(C)=O)C(OC(C)=O)C1OC(C)=O)N(=O)=O)C1=CC=CO1 , P21 ,0,0,1.30157372801,0.6379162268990001
1505, CURSIT , O=N(=O)c1ccc(C=Nc2ccc(Nc3ccccc3)cc2)c(c1)N(=O)=O , P212121 ,0,0,1.4261101714200002,0.6992878602429999
1508, ZAQNAG , COC(=O)C(CC1(C)C(=O)ON=C1C(C)(C)C)NC1(c2ccccc2)c2ccccc2c2ccccc12 , P212121 ,0,1,1.22070943091,0.66452991453
1509, CHEXOX10 , ON=C1CCC(CC1)=NO , Pbca ,1,0,1.3554043061399998,0.7128882613959999
1510, POKPUA , COC(=O)N1C2CN3OC(OC)(C(COC(N)=O)c4c(OC)cc(cc34)C(=O)OC)C12 , P-1 ,1,1,1.4773085135799997,0.708563279857
1511, FOPZUG , Cc1cc(C)c(c(C)c1)C1=NOC(C1)C(O)C1CC(=NO1)c1c(C)cc(C)cc1C , P21/c ,1,1,1.23749519819,0.679363518213
1512, XAKKUP , CC1CNC(ON1C)C12OC3COC(C)(C)OC3C1OC(C)(C)O2 , P212121 ,0,0,1.28302742042,0.670706250218
1514, VEXNEU , CC1(C)CC(=O)N(C1=O)c1cc(ccc1O)N(=O)=O , C2/c ,1,0,1.4320927233,0.692791058965
1515, WICWAG , CC(=O)OC1CCC2(C)C3CCC4(C)C(CCC4C3C(N(=O)=O)C2(C1)ON(=O)=O)OC(C)=O , P212121 ,0,0,1.33958467453,0.670395537525
1516, DEKYUO , CC(=O)c1cc(cc(c1O)N(=O)=O)N(=O)=O , Pbca ,1,0,1.6170544534399998,0.726038440324
1517, HULJON , O=N(=O)c1ccc(NN=C2CCCC2)cc1 , Pbca ,1,0,1.28514376051,0.658875091308
1518, ABULIT05 , COc1cccc(C=NO)c1O , Pbca ,1,0,1.73493982937,0.8555453149
1520, EZETAF , COc1ccc(cc1)N1N=CC=C1c1ccccc1N(=O)=O , Pna21 ,0,0,1.37589704212,0.7042167090379999
1521, INEZOS , NN1C(=C(N=C1N(=O)=O)N(=O)=O)N , Pna21 ,0,0,1.9147771959,0.7873677884620001
1522, LEBGEE05 , CC(C)=NNc1ccc(cc1N(=O)=O)N(=O)=O , P-1 ,1,1,1.51028899199,0.718279904554
1524, PAKNOH , CCOC(=O)CC1(CC(=O)OCC)OC2c3ccc(OC)cc3N3C(=O)N(C(=O)N1C23C(C)=NOC)c1ccccc1 , P-1 ,1,1,1.30120612466,0.6529508355070001
1525, PUJLUC , O=N(=O)c1ccc(NN=C(Cc2ccccc2)Cc2ccccc2)c(c1)N(=O)=O , P21/c ,1,0,1.37452729662,0.6933237160100001
1527, OFOYEQ , CCN(CC)c1ccc2c(Oc3cc(C)c(Nc4ccccc4)cc3C32OC(=O)c2c(cccc32)N(=O)=O)c1 , P-1 ,1,0,1.30455426051,0.668912848158
1528, SUTWEJ , CC(C)N(C(C)C)C(=O)OC=CC(C)C(OC(=O)c1cc(cc(c1)N(=O)=O)N(=O)=O)C(C)C(COC(c1ccccc1)(c1ccccc1)c1ccccc1)OC(=O)c1cc(cc(c1)N(=O)=O)N(=O)=O , P212121 ,0,0,1.3120746531899998,0.6588045586569999
1529, YUFJEQ , CC1(C)C=C(C#Cc2ccc(cc2)c2cc(nc(c2)c2ccccn2)c2ccccn2)C(C)(C)N1[O] , P21/c ,1,1,1.2340937887799999,0.674579256117
1530, HURZUQ , CCOC(=O)C1ON(C2CCCCC2)C2C1COc1ncccc21 , Pbca ,1,0,1.28019413052,0.6716318889049999
1531, VANDEV , CC(C)c1cccc(C(C)C)c1N1C=CN(C1=Cc1ccc(cc1)N(=O)=O)c1c(cccc1C(C)C)C(C)C , P21/c ,1,0,1.14322254776,0.6853391751629999
1532, KABHED , O=C1Oc2ccccc2C(=C1N(=O)=O)Cc1ccc2ccccc2n1 , P-1 ,1,1,1.4715064450600002,0.7225319396050001
1533, IJOYIP , COC12CC(C(CC1C(C1C(C(ON1O2)c1ccccc1)N(=O)=O)c1ccccc1)N(=O)=O)c1ccccc1 , P21/c ,1,0,1.3313756564,0.668908710135
1534, FESNEW19 , COc1ccc(cc1N(=O)=O)N(=O)=O , P21/n ,0,0,1.6177664947400001,0.737625231911
1536, HEDFOO , O=N(=O)C1=C(c2ccccc2)c2ccccc2C1 , Pca21 ,0,0,1.34152716982,0.693096050455
1537, YEJNAC01 , Oc1ccc(cc1)N=Nc1ccccc1N(=O)=O , P-1 ,1,1,1.47015619723,0.7128310128309999
1538, TAYROD , CC(C)(C)OC(=O)C1NC(C(C1c1ccccc1)N(=O)=O)c1ccccc1 , P212121 ,0,0,1.28659158837,0.687720438846
1539, ZIWXEI , O=NN1C(C(c2ccccc2)C(=O)C(C1c1ccccc1)c1ccccc1)c1ccccc1 , P21/n ,0,0,1.31012697943,0.683231104408
1541, SIMJII , COc1cc(OC)cc(c1)C1=NOC(=N1)c1ccccc1OCC(=O)Nc1c(C)cccc1C , P-1 ,1,1,1.3336935103,0.682202088452
1542, WOJCUV , COc1ccccc1C=CC1=NC(=CN1C)N(=O)=O , P-1 ,1,1,1.42394744695,0.722917625403
1543, TAQTEN , O=C1CN(C(c2ccccc2)c2ccccc2)C21C(C(C2N(=O)=O)c1ccccc1)c1ccccc1 , P21/c ,1,0,1.29547447032,0.6876697306890001
1544, UREROA , CC1(C)C(=NOC1(ON1C(=O)c2ccccc2C1=O)OC(=O)c1ccccc1)c1ccccc1 , P-1 ,1,1,1.35363566556,0.669420210616
1545, AWENIB02 , Oc1ccc(cc1C(=O)Oc1ccccc1)N(=O)=O , P21/c ,1,0,1.4168662569200001,0.670269589317
1546, REPXOA , Cc1nc2ccccc2n([O])n1 , P21/c ,1,1,1.42958972098,0.7186218211650001
1547, LATWOT , COC(=O)c1cc(C)cc(NC(=O)c2cc(C)cc(c2OC)N(=O)=O)c1OC , P-1 ,1,1,1.39177312648,0.684025962041
1548, LAGVEU , CC(=O)OC1N(C(=O)c2ccccc2N1N(=O)=O)N(=O)=O , P-1 ,1,1,1.5982478319100002,0.7016098364810001
1549, XUCJEM01 , CN1C=NC(=C1)N(=O)=O , P1 ,0,1,1.5561260554299998,0.748653017241
1552, QABCUS , COCOc1cc(cc2N(CC3C(N3C(=O)OC)C(=O)C(CO)c12)C(=O)OCc1cc(OC)c(OC)cc1N(=O)=O)C(=O)OC , P212121 ,0,0,1.38971456331,0.672968057583
1553, KEBKIM , CCCCC12C(CCC(=O)N1CCC1=C2Nc2ccccc12)C(=O)c1ccc(cc1)N(=O)=O , P21/c ,1,0,1.3250099052600002,0.6899873679530001
1554, HOBRUN , O=C1c2ccccc2C(=O)C(=C1c1ccccc1N(=O)=O)c1ccccc1N(=O)=O , P21/n ,0,0,1.46765482274,0.6978338035089999
1555, SUWXUD , O=C1NC(=O)C2C1ON1c3ccccc3C(=O)C21c1ccccc1 , P-1 ,1,1,1.52507993887,0.7351351351350001
1557, MEPQAA , O=N(=O)C1=CC=C(NCCc2ccccn2)C2=NON=C12 , Pbca ,1,0,1.45208410276,0.692217138558
1558, PHAZOX01 , [O-][n+]1c2ccccc2[n+]([O-])c2ccccc12 , P21/c ,1,0,1.53724991589,0.710172868068
1559, NUFRUB , CON(C)C(=O)C12OC1C(C)OC2=O , P212121 ,0,0,1.37436115458,0.6752132671250001
1560, TEQZEU , CC(C)(C)N1N=C(c2ccc(cc2)N(=O)=O)c2c(N)ncnc12 , P21/c ,1,0,1.33075750192,0.665881124618
1561, MNFURP , Cc1ccc(cc1)C(=O)C=CC1=CC=C(O1)N(=O)=O , P21/c ,1,1,1.39361761895,0.69412756028
1562, DEMRUI , CC(=O)C1=C(O)CCCCCCC(C1)N(=O)=O , C2/c ,1,0,1.32691404548,0.7173389110889999
1563, OZIKIS , CC1=CC2(CCCC3(CCCC(O)C23)C#N)ON=C1 , P212121 ,0,0,1.26747817337,0.6967046981389999
1565, DOSVOY , O=N(=O)N1c2ccccc2c2ccccc12 , Pbca ,1,0,1.51930040136,0.7377060191600001
1566, JEKHIR , CCOC(=O)C(O)C(=Cc1ccc(cc1)N(C)C)N(=O)=O , P21/c ,1,0,1.3167465650499999,0.6741479978470001
1567, IDALOO , COC(=O)C1=CC(C(C(=CN1c1ccc(cc1)N(=O)=O)C)c1ccccc1)c1ccccc1 , P21/n ,0,0,1.32703063365,0.704608510071
1569, KAQNAR , CC(C)C(CCN(=O)=O)C(=O)N1C(C(C)C)C(OC1=O)(c1ccccc1)c1ccccc1 , P212121 ,0,0,1.21827642995,0.647696067482
1570, ZZZNQQ01 , OC(=O)C=Cc1ccccc1N(=O)=O , P21 ,0,0,1.53684018088,0.735705003249
1571, ZZZMGS03 , Cc1ccc(Nc2c(cc(cc2N(=O)=O)N(=O)=O)N(=O)=O)cc1 , P21/c ,1,0,1.57659431606,0.7259634674269999
1572, PAWRUA , CC1=[N+]([O-])ON=C1C1OCCO1 , P-1 ,1,1,1.4792176311200003,0.6873659373659999
1573, YAMPEK , CC(C)C1=NC2=C(O1)c1ccccc1C(=O)C2=NOC(C)=O , C2/c ,1,0,1.34811589068,0.6727516968330001
1574, ZAFMIF , COC(=O)C1(CC(C)C2C1CCC2=NNc1ccc(cc1N(=O)=O)N(=O)=O)C(=O)OC , I2/a ,0,0,1.41825853274,0.688519490255
1575, YIBNUV , CCOC(=O)C1=C(ON=C1C(=O)OC1CCCCC1)c1ccccc1 , P-1 ,1,1,1.3283151187200002,0.694638297872
1576, FESNEW16 , COc1ccc(cc1N(=O)=O)N(=O)=O , P21/n ,0,0,1.59638974041,0.7250836120399999
1577, SUMBAE , COC(=O)NC(Cc1ccccc1)C(=O)ON1CC(=O)N(C)C1(C)C(C)C , P21 ,0,0,1.26986333647,0.670589680235
1578, JOCZAD , COc1nc(NCC2=CC=CO2)nc(n1)C(CCC(C)=O)(N(=O)=O)N(=O)=O , P21/n ,0,0,1.4292658533200002,0.674962452513
1579, XIJVUJ , CC1(C)N([O])C(=[N+]([O-])C1(C)C)C1=[N+]([O-])C(C)(C)C(C)(C)[N+](=C1)[O-] , P21/c ,1,0,1.28459477606,0.6846859437530001
1580, UZIRIF , CCOC(=O)C(CC(C)C)=C1CC(N2CCC(=O)N12)c1ccc(cc1)N(=O)=O , P-1 ,1,1,1.3626243966999998,0.715961259819
1581, AVAGUZ , COC(=O)C(=O)C(C(=O)OC)=C1NC(C)(C)C(C)(C)N1O , Pbca ,1,0,1.32872997373,0.6792497528020001
1582, HEXYAL , COc1ccccc1NC(=O)c1cc(C)cc(NC(=O)c2cc(C)cc(c2O)N(=O)=O)c1OC , P21/n ,0,0,1.38789792334,0.6901976336839999
1583, ELUBIW , CC1=NC(=C(N1CC(=O)c1ccccc1)N(=O)=O)Nc1ccccc1 , P21/n ,0,0,1.4082866906,0.714539400666
1584, ATOVEK , Cc1cccc(c1)C1CC1C(=NO)C1=CC=CO1 , P21/c ,1,1,1.21419560783,0.656203078078
1585, LEDBII , CCC1C(=N([O])C1(C(=O)OC)C(=O)OC)c1ccccc1 , Pna21 ,0,0,1.30642723854,0.677668748142
1586, SATGAV01 , CC(CCC(O)=O)C1CCC2C3CCC4CC(CCC4(C)C3CCC12C)=NO , P65 ,0,0,1.0417962512799999,0.504823772256
1588, VAYLUC , O=C1Oc2cc(ccc2c2c1cccc2N(=O)=O)N(=O)=O , A112/a ,0,0,1.6723412793799999,0.717974356358
1589, VIYNOH , COC(=O)C1=C(C)NC(=C(C1c1cccc(c1)N(=O)=O)C(=O)Nc1ccccc1)C , P21/c ,1,0,1.33463232304,0.683325434673
1590, IVENUU , COc1ccc(cc1)C(CN(=O)=O)C1=C(C)N(C)c2ccccc12 , C2/c ,1,0,1.29817411032,0.6921217744789999
1591, XAGWOR , COC1CCC2CCN1CC2C#Cc1ccc(cc1)N(=O)=O , P212121 ,0,0,1.24961917729,0.6631331663660001
1592, HUQLOU , COC(=O)C1C(CC(=O)C2C1C(CC1(C)C(CCC21O)COC(=O)c1ccc(cc1)N(=O)=O)OC(C)=O)C1CCC(=O)O1 , C2 ,0,0,1.3995659177500002,0.688939022579
1593, JONQOU , COC(=O)c1cccc(C)c1c1ccc(NCc2cc(ccc2N)N(=O)=O)cc1 , P21/c ,1,0,1.35724199965,0.704460784314
1594, VABYEE , Oc1ccc(cc1)C=NNC(=O)c1ccc(cc1)N(=O)=O , P21/c ,1,1,1.44748974902,0.7010068704100001
1595, ZOGLIQ , Cc1cccc2c1C1C(C3ON(OC23C)C1(N(=O)=O)N(=O)=O)N(=O)=O , P21/c ,1,0,1.6529404922600002,0.7318018116339999
1597, QIKDUJ , O=N(=O)c1ccc(NN=C(CN2CCOCC2)CN2C=NC(=C2N(=O)=O)N2CCOCC2)c(c1)N(=O)=O , P-1 ,1,1,1.4713137105399998,0.6969010181190001
1598, QIJMED , O=N(=O)c1cc(c(NCCc2ccccc2)cc1NCCc1ccccc1)N(=O)=O , P-1 ,1,1,1.37751189139,0.7108821355589999
1601, ROKREO , CCN(CC)c1ccc(cc1)N=Nc1ccccc1N(=O)=O , Pbcn ,1,0,1.32601569623,0.709930981083
1602, SEMTAG , O=N(=O)c1ccccc1N1c2ccccc2c2ccccc12 , Iba2 ,0,0,1.3203362483499999,0.671608527132
1603, UHURAS , O=N(=O)c1ccc(cc1)C1OC1c1ccc(cc1)N(=O)=O , P21/c ,1,0,1.48649372347,0.710403631456
1604, AZACAH , COC(=O)C1=C(N(Cc2ccc(OC)cc2)N=N1)C1=C(N(N=N1)c1ccc(cc1)N(=O)=O)C1=C(C)N(Cc2ccc(OC)cc2)N=N1 , P21/c ,1,0,1.3692688378400002,0.666262035892
1605, TESKOR , O=N(=O)C1C(c2ccccc2c2ccccc12)C(N(=O)=O)(N(=O)=O)N(=O)=O , Pbca ,1,0,1.60737176894,0.7167744763989999
1606, DIFZAU , CC1(C)C2CCC31C(C2)N(N(C3=O)c1ccccc1)C(=O)C=NOCc1ccccc1 , P212121 ,0,0,1.2445465096700001,0.658125956578
1607, NBZOAC14 , OC(=O)c1ccc(cc1)N(=O)=O , P21/c ,1,0,1.58173090554,0.725123741253
1608, WADFUE , CCOC(=O)C1(CC(C(N1)c1ccccc1N(=O)=O)C(C)=O)C(=O)OCC , P21 ,0,0,1.27029805374,0.644839879813
1609, IWURAV , CCCCC1=C(C(O)=O)C(ON1C(Cc1ccccc1)C#N)(c1ccccc1)c1ccccc1 , P21/c ,1,0,1.2627413571500001,0.7309477552660001
1610, XUFFEL , CC1CCN(C(C1C(C)(C)C)c1ccc2ccccc2c1)C(=O)c1ccc(cc1)N(=O)=O , P-1 ,1,1,1.2784476796100002,0.695227695228
1611, MEGLUG , Cc1ccccc1C1=NOC(=N1)CO , P21/n ,0,0,1.38935470939,0.710991493886
1612, DETGIS , None , P21/c ,1,0,1.4229088632299998,0.736495388669
1613, SALMOI , C1C2C=CC=CC3ON=C(C23)c2ccccc12 , P212121 ,0,0,1.29936859668,0.68817944131
1614, HEVPIH , CC(=O)C(=CC1=CC=C(O1)c1ccccc1N(=O)=O)C(C)=O , P-1 ,1,1,1.45880750208,0.734948693282
1616, XEVRIB , OC1CCCC(CC(=O)c2ccccc2)C1N(=O)=O , P212121 ,0,0,1.39322697161,0.736586219395
1617, DEKYOI , CC(=O)c1cc(c(O)cc1O)N(=O)=O , P21/n ,0,0,1.56658209484,0.721706454465
1618, MAHHUZ , Cc1cc(C)c(N=Nc2c(C)cc(C)cc2N(=O)=O)c(c1)N(=O)=O , P21/c ,1,0,1.3701508521799999,0.723071244001