ID,name,smiles,space_group,inversion_symmetry,beta_packing,density,packing_coefficient
3248, DOVCAT , NC1=NON=C1N=[N+]=[N-] , P21/c ,1,0,1.65966500873,0.7098917847890001
3249, IZUBUC , [O-][N+]1=C(C=NN1c1ccccc1)C1=[N+]([O-])N(N=C1)c1ccccc1 , P21/c ,1,1,1.44847686788,0.704758986928
3250, KAHNAJ , CC(=O)OCC1OC(Oc2ccccc2N(=O)=O)C(OC(C)=O)C(OC(C)=O)C1OC(C)=O , P21 ,0,0,1.4098001697,0.6773037918870001
3251, KICVIE , NC(=O)C1(C=C(C(C1c1ccccc1)N(=O)=O)c1ccccc1)C#N , P21/n ,0,0,1.32650018611,0.6776994031470001
3253, REWDAY , CNC(=O)N1C(c2cccc(c2)N(=O)=O)C(=C(C)NC1=O)C(=O)OC(C)C , P21/c ,1,0,1.36155793947,0.669084796744
3254, TEDYAC , Cc1cc(C(=Cc2ccccc2)C#N)c(c(C)n1)N(=O)=O , P21/n ,0,1,1.3136835114799998,0.683265419265
3255, GAPHOW , OC1=C(C(c2ccc(cc2)N(=O)=O)C2=C(O)c3ccccc3OC2=O)C(=O)Oc2ccccc12 , Pna21 ,0,0,1.471316359,0.684380532464
3256, LIPCIY , COc1ccc2c(CCCC2=NN(=O)=O)c1 , C2/c ,1,0,1.3900435423700002,0.710749738767
3257, WEKGUP , [O]n1c(cc(cc1N(=O)=O)N(=O)=O)N(=O)=O , Pnma ,1,0,1.87452473275,0.752476765354
3258, WOJDAC , CN1C=C(N=C1C=Cc1ccc(C)cc1)N(=O)=O , P21/c ,1,0,1.34956535082,0.701346564567
3259, CUNVAI , CC(=O)C(C)=NNc1ccc(cc1N(=O)=O)N(=O)=O , P21/c ,1,1,1.51633673554,0.718837199095
3262, NBZOAC10 , OC(=O)c1ccc(cc1)N(=O)=O , A2/a ,0,0,1.5852908926299998,0.704426912119
3263, ROQPAQ , CCCCN1C(=O)NC(=O)C2(Cc3cc(ccc3N3CCOCC23)N(=O)=O)C1=O , P-1 ,1,1,1.4226773403400002,0.696679418036
3264, DOTKAY , CC(C)(C)C1CCC2CCCC2C(C1)=NO , P21/c ,1,0,1.0673855835200001,0.668193612455
3265, GINSAY , [O]n1c2ccccc2c(c2ccccc12)c1c2ccccc2n([O])c2ccccc12 , C2/c ,1,0,1.37829853099,0.694157477869
3266, LESHUP , CC1(C)CCc2c(O1)c1ccccc1c1nc3ccc(cc3nc21)N(=O)=O , P21/c ,1,1,1.41385990686,0.6966666666670001
3267, LAVTOS , O=C1C2CCN(CC2)C1=Cc1cccc(c1)N(=O)=O , P21/c ,1,0,1.44080158021,0.736612021858
3268, MOPQEN , CCN(CC)C(=O)C1=C(C)NC2=C(C1c1cccc(c1)N(=O)=O)C(=O)C(C)(C)CC2 , R3c ,0,0,1.2510550177,0.703419460425
3269, KERPOO , Cc1cc(N)ncc1N(=O)=O , C2/c ,1,1,1.51422283693,0.7364106988779999
3270, DAXREC , CC1=C(C(O)c2ccc(cc2)N(=O)=O)C(=O)N2c3ccccc3C=C12 , P21/n ,0,0,1.45205604905,0.718932476388
3271, JIGBUW , OCC(O)C(O)C(O)C(O)C(O)CN(=O)=O , P21 ,0,1,1.5467136320800001,0.7154700854699999
3272, TUVMEE01 , OCCCNc1cc(NCCCO)c(cc1N(=O)=O)N(=O)=O , P21/c ,1,0,1.41704647257,0.691681769233
3273, AZUCOO , COc1ccc(cc1N(=O)=O)c1cccc2cccc(c3ccc(OC)c(c3)N(=O)=O)c12 , I41cd ,0,0,1.41770340381,0.698102183505
3274, IBESUD , O=C1CCCC2=CCON1C2 , C2/c ,1,0,1.32918987011,0.7082516622470001
3275, KITMIJ , COc1cccc(c1)C1(C)CCC(=NO)C(C)C1 , P-1 ,1,1,1.1962011854299999,0.695993427094
3276, HUKTUD , O=N(=O)NCC(CNN(=O)=O)(CNN(=O)=O)CNN(=O)=O , I-4 ,0,1,1.7578395402900002,0.7580174927109999
3277, QUMKIT , Cc1c2Oc3cc(Oc4c(C)c(Oc5cc(Oc1c(cc2C(C)(C)C)C(C)(C)C)c(cc5N(=O)=O)N(=O)=O)c(cc4C(C)(C)C)C(C)(C)C)c(cc3N(=O)=O)N(=O)=O , P-1 ,1,1,1.29013138811,0.661497822517
3278, SUNWIH01 , CC1(C)C(=O)CCCc2ccc(cc12)N(=O)=O , P-1 ,1,1,1.36344186526,0.718818998716
3280, GOPWUF , Cc1cccc(C)c1N=C(C)C(=NO)C(C)=Nc1c(C)cccc1C , I2/c ,0,0,1.14161855779,0.642729288769
3281, ISUQES01 , CC1=NC(=C(C#N)N1c1ccccc1)N(=O)=O , P21/n ,0,0,1.45195457716,0.734612333213
3282, DAHLAZ , O=N(=O)c1ccc(NN=Cc2ccccc2)cc1 , Cc ,0,0,1.34491695461,0.6818050666509999
3283, VENXUK , ON=C1C(=O)Nc2ccccc12 , P21 ,0,1,1.4383551132899999,0.696747135843
3284, VEFDAN , COC(=O)C1C(C(C(NC1=O)c1ccccc1OC)N(=O)=O)c1ccccc1OC , C2/c ,1,0,1.0878794978200002,0.542849355953
3285, LOGFES , CC1C(CC2CCCCC12C)=NO , P21/c ,1,0,1.11185534657,0.657519977169
3286, ZZZMBE02 , OC(=O)C=Cc1cccc(c1)N(=O)=O , P21/n ,0,0,1.4789281182799998,0.704882082255
3287, FESNEW12 , COc1ccc(cc1N(=O)=O)N(=O)=O , P21/n ,0,0,1.56248552046,0.768115942029
3288, ADAFUI , Cc1cc(cc(C)c1OC(=O)c1ccc(cc1)C(=O)OC1CC(C)(C)N([O])C(C)(C)C1)C(=O)OC1CC(C)(C)N([O])C(C)(C)C1 , C2/c ,1,0,1.22402642918,0.6573484451430001
3290, LUFXIV , CCCCCCC1=CN(N=N1)c1ccc(cc1)N(=O)=O , P-1 ,1,1,1.2973221020399999,0.6776980329610001
3291, SARNEG , CC(COC(=O)c1ccc(cc1)N(=O)=O)C1N2CCCC2(Cc2ccccn2)C(=O)N1c1ccccc1 , P212121 ,0,0,1.35941683206,0.697658375687
3292, ANEVAS , COC(=O)C1=CC(c2ccccc2)C(C#CCOCc2ccccc2)(N(=O)=O)C21C(=O)N(C)c1ccccc21 , P212121 ,0,0,1.31630414574,0.671072931276
3293, RIYQOG , COc1ccc(c(c1c1c(OC)c(cc(c1N(=O)=O)N(=O)=O)N(=O)=O)N(=O)=O)N(=O)=O , P-1 ,1,1,1.6869754322,0.716447134211
3294, SODHUP , Oc1cc(O)c2C(=O)OCCC=CCCC=CC(Cc2c1)=NOCC(=O)N1CCCCC1 , P21/c ,1,0,1.31786316217,0.692297884671
3295, XUFSAT , OC1C(O)C(=O)OC1C(CN(=O)=O)c1ccccc1 , P212121 ,0,0,1.51764335276,0.7391576517540001
3296, GIMNAU , O=N(=O)N1C=CC(=N1)N(=O)=O , P21/c ,1,0,1.7960148620099998,0.748799732273
3297, GAYMOL , O=C1N[N-]C(=C1[N+]#N)N(=O)=O , P21/n ,0,0,1.7683441583400001,0.712117155708
3298, KAXMOM , CC(C)(C)c1cc2Cc3cc(cc(Cc4cc(cc(Cc5cc(cc(Cc(c1)c2OCC#N)c5OCC=C)N(=O)=O)c4OCC#N)C(C)(C)C)c3OCC=C)N(=O)=O , P-1 ,1,1,1.26210116502,0.666755347079
3299, XIFQIN , CC1=NC(=CN1c1ccc(cc1)N(=O)=O)N(=O)=O , Pbca ,1,0,1.5331396247100002,0.714704502814
3300, UTAFOM , CC(=O)ON=C1CC(C)(C)CC2=C1C(=NN2c1ccccc1)C , P21/n ,0,0,1.27238619812,0.681892697466
3301, UDATUR , CC1(C)N=C(N([O])C1(C)C)C1=Nc2ccccc2N1C=C , P21/n ,0,0,1.26911179387,0.6869129675579999
3302, DOCRUK , CC(=CNC(=O)c1ccc(cc1)N(=O)=O)C(=O)NC(C)(C)C , R-3 ,1,0,1.25866191525,0.664352905477
3303, DAVWAB , CCC1=C(CC)C2=C(C3=NC(=CC4=C(CC)C(=C(N4)C(=C4N=C(C=C1N2)C(=C4CC)CC)N(=O)=O)CC)C(=C3CC)CC)N(=O)=O , P-1 ,1,1,1.29167424517,0.701901932796
3305, KUCVUB , CCN(CC)c1ccc2c(Oc3cc(ccc3C32N(N=Cc2ccccc2N(=O)=O)C(=O)c2ccccc32)N(CC)CC)c1 , P-1 ,1,1,1.25274176947,0.645471632564
3306, SICNUN , OC(=O)CN(c1ccc(cc1N(=O)=O)N(=O)=O)N(=O)=O , P21/n ,0,0,1.70214202831,0.721388045916
3307, QUXPEG , CCOC(=O)CC(CN(=O)=O)C(NC(=O)CC(CN(=O)=O)C(NC(=O)CC(CN(=O)=O)C(NC(=O)CC(CN(=O)=O)C(NC(=O)OC(C)(C)C)C(C)C)C(C)C)C(C)C)C(C)C , P21 ,0,0,1.25276618446,0.66461682515
3308, KOYLOZ , CC1(C(N(Cc2ccccc2)C(=O)C1=Cc1ccccc1)c1ccccc1)N(=O)=O , Pbn21 ,0,0,1.23302109463,0.597397805182
3309, YODFUT01 , CCCNc1ccc(cc1N(=O)=O)C(=O)OCC , P-1 ,1,1,1.3028260149200002,0.666957332901
3311, CITRON , O=C(N1OC2CCC1C1C2ON=C1c1ccccc1)c1ccccc1 , Cc ,0,0,1.3187842246600001,0.669741151059
3312, TERWIW01 , CC(=O)OCC1OC(Oc2ccc(cc2)N(=O)=O)C(OC(C)=O)C(OC(C)=O)C1OC(C)=O , P21 ,0,0,1.3261808549299998,0.6338638036159999
3313, KANMUH , O=N(=O)C(=Cc1c2ccccc2cc2ccccc12)c1ccccc1 , P-1 ,1,1,1.29385611726,0.677744005404
3314, PEFXED10 , O=C1CCCC(O1)C1CC1C=NNc1ccc(cc1N(=O)=O)N(=O)=O , P212121 ,0,0,1.44635393415,0.6973431013429999
3315, OROMOZ , CC(C)C1CCC(C)CC21N(C)C(=O)C1C3COCC3ON21 , P212121 ,0,0,1.2356775553200001,0.683749669574
3316, LULYEW , O=N(=O)c1ccc([O-])c(C=[NH+]Cc2ccccc2)c1 , P21/c ,1,0,1.3952481916,0.704534313725
3317, TAJFER , CCOC(=O)C(CC(=O)NC1OC(COC(C)=O)C(OC(C)=O)C(OC(C)=O)C1OC(C)=O)N(=O)=O , P212121 ,0,0,1.35876661211,0.653196581408
3318, IFEGUV , CCOC(=O)C1=C(C)NC(c2ccccc2)C2(C1c1ccccc1)C(=O)ON=C2c1ccccc1 , P21/n ,0,0,1.30849078112,0.6859674243780001
3319, FAQQIX , O=C(Nc1ccccc1)c1[n+]([O-])c2ccccc2nc1Nc1ccccc1 , Pna21 ,0,0,1.42406845314,0.7275094521459999
3321, IHETAQ , COc1ccccc1NC(=O)c1c(cc(cc1N(=O)=O)N(=O)=O)N=Nc1ccccc1OC , P212121 ,0,0,1.4605039135100002,0.700281005544
3322, GAHPEK , CC(C)C(N(O)C(C)=O)C(O)=O , P21/a ,0,0,1.26103770786,0.6564914450630001
3323, YUZJIO , CC(C)(C)NC(=O)C(=NO)c1ccccc1 , P21/a ,0,0,1.16629889375,0.64525012025
3324, RICCIQ , Cc1ccc(cc1)C1CC(=NN1C(C)=O)c1ccc(cc1)N(=O)=O , C2/c ,1,0,1.31749048989,0.6814820002799999
3325, DACMIF , COC(=O)C(C)(C)C(=O)C(C)(C)C(=O)c1ccc(cc1)N(=O)=O , C2/c ,1,0,1.36470488915,0.707492960554
3326, WARLIN , CC1(C)CC(CC(C)(C)N1[O])OC(=O)C1(C)COC(C)(C)OC1 , P2/n ,0,0,1.20255457738,0.670951071101
3327, RUTVOR , CC1=C(C(=NO1)C)c1cccc2cc3cccc(c3cc12)C1=C(C)ON=C1C , P212121 ,0,0,1.2074321268600001,0.633547008547
3328, YIVNEW , OCC1OC(CC1O)N1C=CC(=C1)N(=O)=O , P212121 ,0,0,1.5063779821799999,0.659138655462
3329, AVOJUR02 , CC(=O)Nc1ccc(N)cc1N(=O)=O , P21/n ,0,0,1.54022479852,0.766666666667
3330, UKIJIJ , OCC(N1N=NC(=N1)N(=O)=O)(N(=O)=O)N(=O)=O , P21/c ,1,0,1.8239717266799997,0.7145664300200001
3331, JOWSEV , OC(=O)c1ccccc1N=CC1=CC=C(O1)c1ccccc1N(=O)=O , P-1 ,1,1,1.4797470844100002,0.711646514936
3332, DICRAI , [O-][N+]1=CC(=NO1)c1ccccc1 , P-1 ,1,1,1.4216259656099999,0.693854995579
3334, BUJVEJ , CC1C(=O)CC2C3(CCC(OC(=O)c4ccc(cc4)N(=O)=O)C12C3OC(=O)c1ccc(cc1)N(=O)=O)COC(=O)c1ccc(cc1)N(=O)=O , P-1 ,1,0,1.15483662278,0.566750781062
3335, MULQEQ , O=C1C2C(CON1Cc1ccccc1)C=CC(C2c1ccccc1)c1ccccc1 , Pna21 ,0,0,1.24855243804,0.6727004495209999
3336, MAXCIN , None , P21/c ,1,0,1.48569929349,0.755017361111
3337, KACNIN , COc1cc(ccc1OCc1ccc(cc1)N(=O)=O)C=NCC1=CC=CO1 , P21/c ,1,0,1.4059030431900001,0.71953348014
3338, USAHEC , O=N(=O)c1ccc(COc2ccc(cc2)N2OC3CCC2C=C3)cc1 , P21/n ,0,0,1.39981781773,0.707321817616
3339, LURZUT , CC(C)N(CN(C(C)C)N(=O)=O)N(=O)=O , P21 ,0,0,1.38431096236,0.71491202346
3341, VOTXEH , CCC(=NOC(C)=O)C1=C(OC(C)=O)C(=O)c2ccccc2O1 , P-1 ,1,1,1.4078487098899999,0.70131768816
3342, VIFSAF , CC1=Nc2cc(ccc2N1)N(=O)=O , Cc ,0,0,1.44284450586,0.6928741965109999
3343, LEFHAH , COC(=O)C(C)NC(=O)c1c(OC)c(cc(c1OC)N(=O)=O)N(=O)=O , P212121 ,0,0,1.4505851981400002,0.681586174242
3344, KOTWAT , CC1=NN(c2ccccc2)c2ncc(c(c3ccccc3)c12)N(=O)=O , Pbca ,1,1,1.37520614812,0.6903386757209999
3345, PUWGET , COC(=O)C(=C(Nc1ccccc1)c1ccccc1)N(=O)=O , P21/c ,1,0,1.31891036232,0.665940190078
3346, DOCHUY10 , CCC(CC(=NO)C(C)(C)C)C(C)C(O)=O , P3221 ,0,0,1.08424623147,0.618632258065
3347, DUTRIT01 , O=C1CC(Oc2ccccc12)c1ccc(cc1)N(=O)=O , P-1 ,1,1,1.40648982867,0.688968395945
3348, PXTZOP , None , P21/c ,1,0,1.4316299133200001,0.724644001718
3349, SOQVEZ , CC=CCCCCC1=C(C)C(=O)N2CCC(=NO)C2O1 , P212121 ,0,0,1.2115146757200002,0.661900773911
3351, HEYLEF , Cc1cnc(nc1c1cccc(c1)N(=O)=O)c1ccccc1 , P-1 ,1,1,1.3457557072400002,0.6794903660160001
3352, LEKLOC , O=Cc1ccccc1CCNc1ccccc1N(=O)=O , P21/n ,0,0,1.37609417525,0.708458646617
3353, NUPMES01 , O=N(=O)c1ccc(cc1)N=Cc1ccccn1 , P21/n ,0,1,1.41135995708,0.702401250355
3354, PUTDAJ , O=N(=O)c1cc2N3[N-]C=C[N+]3=Nc2c(c1)N(=O)=O , Pnma ,1,1,1.7432328265500001,0.70636700428
3355, QOYJOD02 , O=C1NN=C(N1)N(=O)=O , P21/c ,1,0,1.9134790557700003,0.755186996168
3356, YESMUH , C(CC1=NC(=NO1)c1cccnc1)C1=NC(=NO1)c1cccnc1 , P21/c ,1,0,1.45967466343,0.705714518627
3358, ZOPZAH , CC1C(C(CN1C(C)c1ccccc1)C(C)(C)ON1C(C)(C)CCCC1(C)C)C(=O)OC(C)(C)C , P212121 ,0,0,1.0944691116299998,0.650191453998
3359, FIJFAF , CCOC(=O)C1=C(C)NC(=C(C#N)C1c1ccccc1N(=O)=O)C , P21/c ,1,0,1.32355819809,0.6795513775130001
3360, PAMZOO , CCOC(=O)N1C=CC(=CC2ON=C(N12)c1c(C)cc(C)cc1C)C , P212121 ,0,0,1.25913599578,0.656937625023
3361, ZEVGOZ , Cc1cccc2C3=C(Nc12)c1c(CC3)c(c2ccccc2)c(c(N)c1C#N)N(=O)=O , P-1 ,1,1,1.40975244247,0.708780680678
3362, PIGSEF , Nc1c(c(N)c(c(N2C=C(N=C2N(=O)=O)N(=O)=O)c1N(=O)=O)N(=O)=O)N(=O)=O , P21/n ,0,0,1.8421489076599997,0.726367357463
3363, PINJUR , COC(=O)C1=N([O])N2OC3C4OC(C3C2(C(=O)OC)C1=O)c1ccccc41 , P21/n ,0,0,1.48479471275,0.637260407308
3365, PASJUP , CCC(C)(N(=O)=O)C(C)(CC)N(=O)=O , Cc ,0,1,1.3131331517,0.698929066576
3366, MAYKAB , CC(O)C1C2OC(C)(C)OC2C(CN(=O)=O)N1CC#C , P212121 ,0,0,1.28459498263,0.666474019088
3367, YEMKEG , CC(=O)NC1OC(COC(C)=O)C(OC(C)=O)C(OC(C)=O)C1=NO , P212121 ,0,0,1.26666909796,0.619198312236
3368, XUMRIH , CC(Cc1ccccc1)=NNc1ccc(cc1N(=O)=O)N(=O)=O , P21/n ,0,0,1.39945981363,0.688262695685
3369, HIHHUB , ON=C1CN(CN1)c1ccccc1 , P21/c ,1,0,1.32082175651,0.681762681763
3370, SAWVAO , COc1ccc2C(=O)C(=[N+]([O-])c2c1)c1ccccc1OC , P21 ,0,0,1.42784207896,0.722643097643
3371, BUKQOO , CC1=NOCC(=NOCC(=NOCC(=NOC1)C)C)C , P21/c ,1,0,1.2868198020700001,0.6847272380670001
3372, YILNOY , OC1N2N=NN=C2NC=C1N(=O)=O , P212121 ,0,0,1.7502591095500002,0.7090017825309999
3373, TUMXOQ , O=C(OCC1CC2COC3C(CC1C23)OC(=O)c1ccc(cc1)N(=O)=O)c1ccc(cc1)N(=O)=O , P-1 ,1,1,1.46952315532,0.705266106443
3374, UMOLOZ , O=C1ON=C(c2ccccc2)C1=Cc1ccc(cc1)N1CCCC1 , Pna21 ,0,0,1.32216199157,0.720347155256
3375, MITGUT , CON=C1C(=N([O])N2OC3(CCCC3C12C)N1CCCC1)c1ccccc1 , P21/c ,1,0,1.32873568646,0.7049417148199999
3376, FOVYOE11 , COc1ccc(cn1)N=Cc1ccc(cc1)N(=O)=O , P21 ,0,0,1.40546228181,0.703670980587
3377, PNIANS , COc1ccc(cc1)N(=O)=O , P21/c ,1,1,1.43624122905,0.722075903458
3378, NBZOAO06 , OC(=O)c1ccccc1N(=O)=O , P21/c ,1,1,1.5416219151600001,0.7107685810809999
3379, XOVBUH , CC1(C)OC2C(O)C3CON=C3C2O1 , P65 ,0,0,1.18897759028,0.584912115816
3381, YONJIU , CC12C3CON1OC(C3)(CC2c1ccccc1)OC1CCCCC1c1ccccc1 , P-1 ,1,1,1.24546903749,0.6790534144689999
3382, MNTDMA , CN(C)c1cccc(c1)N(=O)=O , P21/c ,1,0,1.2874087352299999,0.670371901459
3384, XEGHOJ , CC1(C)N([O])C(=[N+]([O-])C1(C)C)C1=C2C=CC=CC=C2C(=C1)C1=[N+]([O-])C(C)(C)C(C)(C)N1[O] , C2/c ,1,1,1.28648406526,0.682623382058
3386, FEVWAH , Cc1ccc(cc1)C1=NOC2C3N(CCc4c3ccc3ccccc43)C(=O)C12 , P21/n ,0,0,1.33802179347,0.688957332556
3388, KAHRUJ , CCC(=O)N1c2ccccc2c2cc(C)c(c3ccccc3)c(c12)N(=O)=O , C2/c ,1,0,1.34778375644,0.69583903261
3389, DIDNOU , O=N(=O)c1ccccc1c1ccccc1c1ccccc1N(=O)=O , C2/c ,1,1,1.41323370162,0.697196454339
3390, DEKYIC01 , COc1cc(O)c(cc1N(=O)=O)C(C)=O , Pbca ,1,0,1.52502425607,0.730073847721
3391, IYOZEC , COC(=O)C1(CC2COC(C)(C)N2C1=O)C(CN(=O)=O)C1=COC=C1 , P21 ,0,0,1.3839213916100002,0.685600490196
3392, CONXIN , CCCNc1ncc(cc1C#N)N(=O)=O , P-1 ,1,1,1.42426079303,0.71935186253
3393, NUTPIC , NOC1CCCCO1 , P21/c ,1,0,1.30429248932,0.7239066018729999
3394, SAGZOR , OC(=O)c1ccc(c(c1)C(O)=O)N(=O)=O , P-1 ,1,1,1.6415640896500001,0.716340269278
3395, PUBMUU , O=N(=O)N1C2C3N(C1C1N(C(C(N3N(=O)=O)N1N(=O)=O)N2N(=O)=O)N(=O)=O)N(=O)=O , P21/n ,0,0,1.9162015164900001,0.7205096468880001
3396, EMAZUP , CCCC1=C(O)C(=NO)c2ccccc2C1=O , P21/n ,0,0,1.3811014207199999,0.7412284334020001
3397, TEFMOG , CN1CCC2(CC1)CC(=NO2)c1ccccc1 , P21/c ,1,1,1.20659956674,0.6664458348669999
3399, TULTEZ , CON1C2C3Cc4ccccc4CN3C(=O)C12C(C)=O , P21/c ,1,0,1.35965553381,0.701870633311
3400, TEBMAO , [H](Oc1ccc(cc1)C=Cc1cc[n+](C)cc1)[O-]c1cc(ccc1N)N(=O)=O , P21/c ,1,0,1.4042196025,0.725708960424
3401, KUKJEH , O=N(=O)C1=CN(COCN2C=C(C(=N2)N(=O)=O)N(=O)=O)N=C1N(=O)=O , P21/c ,1,0,1.7893131771200002,0.737147826087
3403, KOFKEV , O=N(=O)N1CCCCN(C1)N(=O)=O , P21/n ,0,0,1.53954440783,0.7264803648729999
3404, NEWHAB , CC(=O)OCC1OC(ON(=O)=O)C(OC(C)=O)C(OC(C)=O)C1OC(C)=O , P212121 ,0,0,1.4672421957100001,0.692782371569
3405, GAKRAM , Oc1ccccc1C(=O)NN=Cc1ccccc1N(=O)=O , P21/n ,0,0,1.4731363013699998,0.7129046369200001
3406, RIGHUK07 , Cc1cccnc1Cc1ccc(cc1N(=O)=O)N(=O)=O , P21/c ,1,0,1.403693412,0.687647784814
3408, ZIFXET , C1OCC2=NON=C2N2COCC3=NON=C3N1C2 , P43212 ,0,0,1.61422544579,0.7302968164210001
3409, VUNZUB , Cc1ccc(cc1)C1=NOC(O)(C1)C1=Cc2ccccc2O1 , P21/c ,1,0,1.30926542269,0.672717373439
3410, ISONEL , CC1=NN(c2ccccc2)C(=O)C21C(C(CCC2(C)O)N(=O)=O)c1ccccc1 , P212121 ,0,0,1.27596843434,0.6546053872209999
3411, SUGFUV , CC(=O)OC(C(OC(C)=O)C(N(=O)=O)N(=O)=O)C(N(=O)=O)N(=O)=O , P1121/b ,0,0,1.6743810695299999,0.712478298611
3413, ICIGAC , COCOC12CCC(C)(CC1)C1=C2C(=NO1)C(O)=O , P21/n ,0,0,1.37473810343,0.69194301618
3414, EJIRIA , [O-][n+]1ccc(cc1)C(=[N+]=[N-])c1ccccc1 , P21/c ,1,0,1.40289844851,0.730728385807
3415, GUYNOD , CC1=NN(C(=O)C1=C(NO)c1ccccc1)c1ccccc1 , Cc ,0,0,1.34121432157,0.696388443018
3416, SECHIT , COC(=O)C(NC(=O)c1cc(cc(c1)N(=O)=O)N(=O)=O)C(C)C , P212121 ,0,0,1.39419619715,0.671944246597
3417, YUYQEP , CN(C)C(=Nc1ccc(cc1)N(=O)=O)N(C)C , P21/n ,0,0,1.2344900719499998,0.656574151948
3419, FUPGOM , COC(=O)C12ON=C3CCC(OCc4ccccc4)C(C4OC(C)(C)OC4C1O)C23C(=O)OC , P21/c ,1,0,1.3605052994799998,0.676496411666
3420, AHUXUX , CC1=NC(=CN1CC(=O)NCc1ccccc1)N(=O)=O , Pna21 ,0,0,1.38676035267,0.701338971106
3421, HOTNAF , COC(=O)C1=C2N(C)C=NC2=NO1 , P21/a ,0,1,1.5067150293399998,0.712927350427
3422, BAQMEL , CC(=O)C1=C(C)OC(C(C1c1ccccc1)N(=O)=O)c1ccccc1N(=O)=O , P21/c ,1,0,1.3311906313,0.6697350194380001
3426, VIQDUV , C(CC1=NOC(=N1)c1ccccc1)N1C=Nc2ccccc12 , Pna21 ,0,0,1.30704944849,0.679432266734
3429, MILXOV , Cc1c2OC(C)(C)CCc2c(c(O)c1N(=O)=O)N(=O)=O , P21/c ,1,0,1.44628142498,0.700919374563
3430, RAVNAD , CC(=O)OCC1OC(OC2C(COC(=O)C(C)(C)C)OC(Oc3ccc(cc3)N(=O)=O)C(OC(=O)c3ccccc3)C2OC(=O)c2ccccc2)C(C(OC(C)=O)C1OC(C)=O)N1C(=O)c2ccccc2C1=O , P21 ,0,0,1.35731171869,0.664706846138
3432, WEJGOK , CC1(C)N=C(N([O])C1(C)C)c1ccc(cc1)C#Cc1ccc(cc1)C1=NC(C)(C)C(C)(C)N1[O] , P21/n ,0,0,1.20843540546,0.661826185324
3434, QUYDAQ , O=C(CCCOc1cccc2cccnc12)NN=Cc1ccc(cc1)N(=O)=O , P21/c ,1,0,1.36918057147,0.68734006734
3435, SIMJOQ , CC(=C)C1CC(OC(=O)c2ccc(cc2)N(=O)=O)C(C)(C1)C(C)=O , P212121 ,0,0,1.29637441517,0.689985636054
3436, BIBGAU , COc1c2CCCCCc3cc(cc(CCc1cc(c2)N(=O)=O)c3OC)N(=O)=O , P-1 ,1,0,1.3910964050299999,0.662131147541
3437, KUBPAY , O=N(=O)N1CCN=C1C(N(=O)=O)(N(=O)=O)N(=O)=O , P212121 ,0,0,1.8128728633900002,0.725480109739
3438, POZGER , O=N(=O)c1cccc(c1)N1N=NC=C1c1ccccc1 , P21/n ,0,0,1.31246291086,0.657352262235
3439, ZEBWEI , CON1C(=O)C(=O)c2cc3OCOc3c3c4ccccc4cc1c23 , P21/n ,0,0,1.56059016961,0.739934528028
3440, VECRED , O=C1CCN2C(c3ccccc3)C3(C(Oc4ccccc4C3N12)c1ccccc1)N(=O)=O , P21/c ,1,0,1.36317584284,0.679512051734
3441, NOETNA02 , O=N(=O)N(CC(N(=O)=O)(N(=O)=O)N(=O)=O)CC(N(=O)=O)(N(=O)=O)N(=O)=O , P21/n ,0,0,1.95271358064,0.748761103319
3442, EFATOW , C=CCN1N=Cc2ccc(cc12)N(=O)=O , P-1 ,1,1,1.41041270244,0.7077285459639999
3443, GAHVIX , C=CCOc1ccc(cc1N(=O)=O)C1=Nc2ccccc2N1 , P43 ,0,0,1.3901721064800001,0.696988411786
3444, DADSIN , CC(C)(C)OC(=O)C1C(N1c1ccccc1OC(C)(C)C)c1ccc(cc1)N(=O)=O , P21/n ,0,0,1.2581316127700002,0.6792535830850001
3448, BERPAP01 , CCOC(=O)CC(=O)C(=NNc1ccc(cc1)N(=O)=O)C(=O)OCC , P22121 ,0,0,1.3711588091999998,0.685231259968
3450, SIPQOY , CC=C(C)C(C)C(C)(COC(=O)c1ccc(cc1)N(=O)=O)C#N , Pbca ,1,0,1.24103625214,0.6620876089600001
3451, TECDAJ , CC(C)(OC(=O)c1cc(cc(c1)N(=O)=O)N(=O)=O)C1CCC(C)(CC1)c1ccncc1 , P21/c ,1,0,1.36847721863,0.7019393939390001
3452, BEHRIR , COC1=C2COCCC32ON(C(C3C1=C(C)C)c1ccccc1)c1ccccc1 , C2/c ,1,0,1.30777625675,0.708608120897
3453, EWUKAI , Nc1ccc(c(c1)C(O)=O)N(=O)=O , P21/c ,1,0,1.60400526937,0.728370098039
3454, NETDUM , CCOC(=O)C=Cc1ccc(c(Oc2ccc(C=CC(=O)OC(C)(C)C)cc2)c1)N(=O)=O , P-1 ,1,1,1.28299716082,0.668581645892
3455, HXOXAM10 , NC(=O)C(=O)NO , C2/c ,1,0,1.7689147000499998,0.774242069073
3456, UDUGEI , C1Cc2ccccc2C2CC(ON12)N1C=CC=C1c1ccccc1 , Pna21 ,0,0,1.27861427348,0.688043333524
3457, JOTFAZ , CCC(=O)N1CN(C2C1N(CN(CN2N(=O)=O)N(=O)=O)N(=O)=O)C(=O)CC , Pbca ,1,0,1.58046309838,0.718859213876
3458, QENNEF , CCOC1(CN(=O)=O)C(OC2OC(C)(C)OC12)C1COC(C)(C)O1 , P212121 ,0,0,1.30763008109,0.65910228237
3460, NOHMUU , CC1(C)N([O])C(=[N+]([O-])C1(C)C)c1ccc(cc1)C#CC#Cc1ccc(cc1)C1=[N+]([O-])C(C)(C)C(C)(C)N1[O] , P21/c ,1,0,1.2937059286200001,0.693944013304
3461, BENVIA , CC(C)(N(=O)=O)C(C)(COC(=O)C12CCC(C)(C(=O)O1)C2(C)C)N(=O)=O , P21 ,0,0,1.34089764584,0.675303234501
3462, REGKOE , CC1CCC2(O)C(=NOC2(C)C)C1 , P212121 ,0,0,1.17942263196,0.6610492125240001
3463, POWJOA , CC1(C)N([O])C(=N([O])C1(C)C)c1nccn1c1cccc(c1)n1ccnc1C1=N([O])C(C)(C)C(C)(C)N1[O] , Pbcn ,1,0,1.31591675309,0.671964692989
3464, SULZAC , COc1ccc(cc1)C=C1C(=O)ON=C1c1ccccc1 , Pna21 ,0,0,1.3866659431200001,0.717211563822
3465, QURVOO , COC(=O)C1NC(c2ccccc2)C(C)(C1C(C)OCc1ccccc1)N(=O)=O , P21/n ,0,0,1.28286566873,0.68110954382
3466, JERHET , OCC(O)C(O)C(O)CN(=O)=O , P21 ,0,0,1.5101470697100001,0.708500948767
3467, ZUXSOC , CC1=CCC(C=NNc2ccc(cc2N(=O)=O)N(=O)=O)C2C3CC=CCC(O3)C12 , P43212 ,0,0,1.31196913631,0.653650704577
3468, CAKWOB , CC(N1OC2CCCC3C2C1C1=CC=CN31)c1ccccc1 , P212121 ,0,0,1.2258016668,0.676430008623
3469, IXEWUD , CC1=CC2(C)C(C(C#N)C2c2ccc(cc2)N(=O)=O)C(=C1)C , Pbca ,1,0,1.21938158672,0.660558794947
3470, PUVSOO , O=N(=O)N1N=Cc2cc(ccc12)N(=O)=O , P21/n ,0,1,1.6821720042500001,0.730853146853
3471, WIJRAI02 , CC1(C)CC(CC(C)(C)N1[O])N=Cc1ccccc1 , P21/c ,1,0,1.16519454376,0.680920586005
3472, PROPNB10 , O=C(OC1CCCC23CCC12CC3)c1ccc(cc1)N(=O)=O , P21/n ,0,0,1.2947545845100001,0.677726762575
3473, TUVMUU , OCCCCNc1cc(NCCCCO)c(cc1N(=O)=O)N(=O)=O , P-1 ,1,1,1.40626328747,0.698216735254