ID,name,smiles,space_group,inversion_symmetry,beta_packing,density,packing_coefficient
2772, JUBDIT , OC1(CC(NC(C1)c1ccccc1)c1ccccc1)CN(=O)=O , P-1 ,1,1,1.2791237204600001,0.67424719888
2773, VUHPOD , O=C(OC1CC2CCC(C2)C2(CCCO2)C21CCCO2)c1cc(cc(c1)N(=O)=O)N(=O)=O , P21/n ,0,0,1.40708960417,0.688681834597
2774, HEGSET , CC1(C)Cc2ccc(cc2C(=O)N1OC(=O)c1cc(ccc1CC(C)(C)N(=O)=O)N(=O)=O)N(=O)=O , C2/c ,1,0,1.36937738028,0.658980716253
2775, PNFPRO , O=C(C=CC1=CC=C(O1)N(=O)=O)c1ccccc1 , P21/c ,1,0,1.42503483044,0.7156366291390001
2776, GESFAO , O=C1NC(Nc2ccccc12)c1ccccc1N(=O)=O , C2/c ,1,0,1.41971257986,0.683068783069
2777, YEKQAG03 , Nc1[n+]([O-])c(N)c(nc1N(=O)=O)N(=O)=O , P21/n ,0,0,1.9168874062,0.769129720854
2778, WULTUU , CC(=O)C=CC=Cc1ccc(cc1)N(=O)=O , P-1 ,1,1,1.38682713306,0.729644970414
2779, ZEKMAF , O=C(Nc1ccccc1N(=O)=O)c1ccc(OCCN(CCOc2ccc(cc2)C(=O)Nc2ccccc2N(=O)=O)CCOc2ccc(cc2)C(=O)Nc2ccccc2N(=O)=O)cc1 , P21/c ,1,0,1.45432561705,0.714533030323
2780, DMNPYO01 , Cc1cn([O])cc(C)c1N(=O)=O , Pbca ,1,0,1.47550944016,0.731407979408
2781, KENMIZ , CC1=C(C#N)C(=O)C(C)(O)C(C)(N(=O)=O)C1(C)N(=O)=O , Pbca ,1,0,1.50603568421,0.7222321269390001
2782, DIJNIU , CC1C(C)(CCC1(C#N)C(=O)C(C)(C)C)OC(=O)c1ccc(cc1)N(=O)=O , P-1 ,1,1,1.28039791215,0.676777530038
2783, FUDVUV02 , OCC1CCCN1c1ccc(cc1)N(=O)=O , P21 ,0,0,1.41279301139,0.75334950335
2784, CMDNFL01 , O=N(=O)c1ccc2c3ccc(cc3C(=C(C#N)C#N)c2c1)N(=O)=O , Pnna ,1,0,1.52657851963,0.715059233134
2785, ZIZBIV , COC(=O)C1=Cc2ccccc2CN1c1ccc(cc1)N(=O)=O , P21/c ,1,0,1.4253533791600002,0.7106503710169999
2787, ZIXZOX , CC(CN1C(=NC=C1N(=O)=O)C)OC(=O)c1cccc(c1)N(=O)=O , P-1 ,1,1,1.46785953162,0.703252726411
2788, FOWPOX , CC1(C)CCC2(CCC3(C)C(=CCC4C5(C)CC6=NON=C6C(C)(C)C5CCC34C)C2C1)C(=O)OCc1ccccc1 , P212121 ,0,0,1.17241656604,0.657131744743
2789, MUDQAE , CC(C)(C)OC(=O)N1C(COC1(C)C)C=N([O])c1ccccc1 , C2 ,0,0,1.20664075871,0.652289534573
2790, SAWNIP , CCC(=O)C1=NOC(=C1)N(=O)=O , P21/c ,1,0,1.4934236379799999,0.7016
2792, WAZCOS , ON=C1c2cccnc2c2ncccc2C1=NO , Pc ,0,0,1.5191834301299998,0.7152011812479999
2793, ZAGGIX , O=C1OCCOCCOCCOC(=O)C2CC(=NO2)c2cccc(c2)C2=NOC1C2 , Pbca ,1,0,1.3961505270399999,0.626169339443
2794, MUWJUK , CC1C(Cc2ccccc2)C(=O)ON1C(C)c1ccccc1 , P212121 ,0,0,1.21822599705,0.6767391304350001
2795, VOHYUN , COc1cc(C=O)ccc1OCc1ccc(cc1)N(=O)=O , Pbca ,1,0,1.3530401681,0.667384851902
2796, HALKAG , CC(C)(C)c1ccc2c(c1)[N+](=CC2(C)C)[O-] , Pcab ,0,0,1.10867542334,0.673575757576
2797, CTMTNA06 , O=N(=O)N1CN(CN(C1)N(=O)=O)N(=O)=O , Pca21 ,0,0,2.2663332089700003,0.896714789403
2798, YAKVOY , CN(C(Cc1ccccc1)C(=O)NC(C)(C)C)C(=O)C1=CCC2C3CC=C4CC(CCC4(C)C3CCC12C)OC(=O)c1ccc(cc1)N(=O)=O , C2 ,0,0,1.18494625701,0.6388448860729999
2799, YODKAE , Oc1ccc(c2C(=O)C=CC(=O)c12)N(=O)=O , P21/n ,0,0,1.6373415304899999,0.740460264097
2800, ZOGLOW , Cc1cccc2c1C1C(O)C3ON(OC23C)C1(N(=O)=O)N(=O)=O , C2/c ,1,0,1.5699251616699998,0.7077208787739999
2801, XAKMEC , O=N(=O)c1ccc(NCCNCc2c3ccccc3cc3ccccc23)c(c1)N(=O)=O , P21 ,0,0,1.38867252444,0.696456755051
2802, HOFDOV01 , CN(c1cc[n+]([O-])cc1)N(=O)=O , Pbca ,1,0,1.57536831583,0.7532076719580001
2803, RIVBAZ , CC(C)(C)C1=C(N=O)C(=NN1)C(C)(C)C , P21/c ,1,0,1.32166769917,0.681881354692
2804, BIHXUM , O=C1CCC2Oc3ccc(cc3C=C12)N(=O)=O , P21/n ,0,0,1.45125768768,0.727591325441
2805, OXAKAB , C=CN1C(=CC2=C1CCCC2)C#CC#CC#Cc1ccc(cc1)N(=O)=O , P-1 ,1,1,1.33433729502,0.7120353191779999
2807, TIKRIP , COc1cc(ccc1O)C1ON=C2C1CCc1ccccc21 , P21/c ,1,0,1.36940148266,0.646520387159
2808, LIXSUH , OC12CCCCC1C(c1ccccc1)C(=NO2)C#N , P21/c ,1,0,1.27508281405,0.673401486028
2809, OXIRUK , O=N(=O)C1=NN(CC#C)C=N1 , Pbca ,1,0,1.48760525119,0.695449295449
2810, ILOHAU , CN(CN1N=CC(=C1N1C=C(C(=N1)N(=O)=O)N(=O)=O)N(=O)=O)N(=O)=O , P-1 ,1,1,1.73120313903,0.718536994214
2812, WATSUG , CCC(C(N(C(C)c1ccccc1)C(=O)c1cc(cc(c1)N(=O)=O)N(=O)=O)c1ccccc1)C(=O)OC , P21 ,0,0,1.30319846033,0.6614951125330001
2813, NASCOC , COc1ccc(cc1CC1C(=C)C=C(C)CC1(C)C)N(=O)=O , Fdd2 ,0,0,1.21616058256,0.6784902720370001
2815, NAHGEK , Oc1c(O)c2ccc1C=NOCCON=Cc1cccc(OCC=CCOc3cccc(C=NOCCON=C2)c3O)c1O , P-1 ,1,1,1.40055268063,0.6918023161650001
2816, ZORJOF , Cc1cc(cc(C)c1C)C(N(=O)=O)(N(=O)=O)N(=O)=O , P21/c ,1,1,1.48378612287,0.704416503443
2817, CUVJUY , O=NN1CCN(CC1)N=O , Pbca ,1,0,1.4586491659999998,0.715885267772
2818, DUJTOR , COC(=O)C1=C(C(=O)OC)C(N=Nc2ccc(cc2N(=O)=O)N(=O)=O)(C(=O)OC)C(=C1C(=O)OC)C(=O)OC , P-1 ,1,1,1.54514019861,0.70781531861
2819, CUQTOX , CCOC(=O)C1=NOC(=C1C(C)=NNc1ccc(cc1N(=O)=O)N(=O)=O)C , P-1 ,1,1,1.5363331073500002,0.729092987533
2820, HAKZEZ , COc1cccc(C=Nc2ccc(OC(=O)C3CC(C)(C)N([O])C(C)(C)C3)cc2)c1O , P21/c ,1,0,1.25053170765,0.660295939073
2821, NIPXBZ , O=N(=O)c1ccc(Oc2cccc(Oc3ccc(cc3N(=O)=O)N(=O)=O)c2Oc2ccc(cc2N(=O)=O)N(=O)=O)c(c1)N(=O)=O , P-1 ,1,1,1.61935955709,0.671349918773
2822, ETIRAC , COCOCC1(CCN(CC=C)C1(CC=C)C(=O)OC)c1ccccc1N(=O)=O , P21/n ,0,0,1.2431559021,0.659925688911
2823, QOCMOM , CCOC(=O)C(=Cc1ccc(OCc2ccccc2)cc1)N(=O)=O , P21/n ,0,1,1.3800516304,0.7162261162260001
2824, PAWFIE , COC(=O)C(COc1ccccc1N(=O)=O)=Cc1ccccc1 , C2/c ,1,0,1.3116409601,0.7139994991230001
2825, WETZEB , OC1C(CCCCC2NC(=O)OC12)OC(=O)c1ccc(cc1)N(=O)=O , P-1 ,1,1,1.48877258277,0.7213530580390001
2826, ECEMII , CCC1CCC(OC(=O)c2cc(cc(c2)N(=O)=O)N(=O)=O)C1C(=O)OC , P212121 ,0,0,1.42286391511,0.723214285714
2827, DEZTEK , COC(=O)C12CN(CC(C(N(C)C1c1ccc(cc1)N(=O)=O)c1ccc(cc1)N(=O)=O)(C(=O)OC)C2=O)C(C)c1ccccc1 , P212121 ,0,0,1.18538947001,0.5865307034139999
2828, ZOKWED , Cc1ccc(NN=C2C(=O)CC(C)(C)CC2=O)c(c1)N(=O)=O , C2/c ,1,0,1.37676327318,0.696800413626
2829, NITPOL02 , Oc1ccc(cc1)N(=O)=O , P21/n ,0,0,1.54379686835,0.7478662873399999
2831, BOCROA , CC1(C)CC(=O)C(=NNc2ccc(cc2)N(=O)=O)C(=O)C1 , P-1 ,1,1,1.36513770433,0.679115067079
2832, NAQLEY , CCOC(=O)C1C(=NOC21C(=O)N(C)c1ccccc21)C(=O)OCC , P-1 ,1,1,1.37024148278,0.681198995606
2833, TIBLIZ , CC1=[N+]([O-])C(N2CCOCC2)C(O)(C1)c1ccccc1 , P212121 ,0,0,1.25556845437,0.660480928338
2834, NASWUA , O=C1CCCC2ON=C(C12)c1ccccc1N(=O)=O , P-1 ,1,0,1.47317679299,0.7548370927320001
2835, NOSHUY , CC(ON1CC1(C(N)=O)C(N)=O)C(N)=O , P21 ,0,0,1.40714770613,0.619635318949
2836, ZUNPOP , OC1(CC=C)C(=O)c2cccc3c2c1ccc3N(=O)=O , P-1 ,1,1,1.43455511188,0.695484393655
2837, BUXWOG , CON=C(C(O)=O)C(=O)OC , P21/n ,0,0,1.4272181871,0.67697395618
2838, XITGOW , CONC1C(COC(=O)c2ccccc2)OC(OC)C(OC(=O)c2ccccc2)C1OC(=O)c1ccccc1 , P21 ,0,0,1.31925575254,0.673909541726
2840, NTRGUA02 , NC(N)=NN(=O)=O , Fdd2 ,0,0,1.7553063043200001,0.763205992509
2841, WOMWUR , O=C(Nc1ccc(cc1)N(=O)=O)c1ccccc1N(=O)=O , P212121 ,0,0,1.59085108222,0.7465694849369999
2844, NALYOQ , CC1CC(C)(C)N(CCN1N=O)N=O , P21/c ,1,0,1.2537393624200002,0.663936063936
2845, CABZUA , ON=C1CCCCC2CCCC12 , P21/c ,1,1,1.1763140804799999,0.714502940309
2846, MUVNUM , COc1ccc2C3CCC4(C)C(CCC4=O)C3CCc2c1N(=O)=O , P212121 ,0,0,1.28967871106,0.697204066812
2847, AMNTPY01 , Nc1ncccc1N(=O)=O , P21/c ,1,0,1.5541821028999998,0.7273766233769999
2848, FASXOO , Oc1ccc(cc1)C=NOCCCCON=Cc1ccc(O)cc1 , P21/c ,1,0,1.2831495640000001,0.670674210278
2849, DIBFEA , Cc1cccc(C)c1C(=O)Nc1c(C)cc(cc1C)N(=O)=O , P21/c ,1,0,1.27950590448,0.677798879961
2850, BUHLIA , CN1CCN(C)C1=C1C(=O)ON=C1c1ccccc1 , P21/c ,1,1,1.3337165922299998,0.694145758662
2851, KERJID , CC(=O)ON=C1CCC2COC1O2 , P212121 ,0,0,1.41408791424,0.710811605306
2852, JAYZOB , CC(=O)ON(C(=O)c1ccc(cc1)N(=O)=O)c1ccccc1 , Pna21 ,0,0,1.36039854218,0.6624022089280001
2853, NAYTIR , COc1cc(OC)c(C=Cc2ccc(cc2)C=Cc2ccc(cc2)N(=O)=O)c(OC)c1 , P21/c ,1,0,1.30650583475,0.6878329228479999
2854, NEYKOR , CC1(CO)CCCC2(C)C1C(OC(=O)c1ccc(cc1)N(=O)=O)C=C1C(=O)OCC21O , P212121 ,0,0,1.40946169844,0.703980443706
2856, WETPET , C1C2C3ON=C(C3C1c1ccccc21)c1ccccc1 , Pbca ,1,0,1.29754558082,0.685840938722
2858, UHEQON , CC(=O)OCCN(CCOC(C)=O)c1ccc(cc1)N=Nc1ccc(cc1)C1=NN=C(O1)c1ccc(cc1)N(=O)=O , Pbca ,1,0,1.37596656288,0.6754724631550001
2859, TEVDEG , O=N(=O)C(CNC1=NON=C1C1=NO[N+](=C1C1=NON=C1NCC(N(=O)=O)(N(=O)=O)N(=O)=O)[O-])(N(=O)=O)N(=O)=O , P21/c ,1,0,1.8271299809400001,0.731375323555
2860, ACEMUR , O=N(=O)c1ccc(NN=Cc2ccc3OCOc3c2)c(c1)N(=O)=O , P21/c ,1,1,1.59664051268,0.727795684484
2861, IZAREG , CC(=O)ON=Cc1cccc(c1)N(=O)=O , P21/c ,1,0,1.44274669127,0.6978503952189999
2862, VAYKAH , CC(=O)CC1(O)C(=O)c2cc(ccc2c2c(O)cc(cc12)N(=O)=O)N(=O)=O , P21/n ,0,0,1.56033002989,0.726381766382
2863, OFOREJ , CC1(C)CCCC2(C)C1CCC(C)(O)C2CC1=NOC(C1)c1ccccc1 , P21 ,0,0,1.1673850608299998,0.6734621198909999
2864, TIMYUL , CC(C)C1COC(=O)N1C1=CC2CCC1CC2C(=O)c1ccc(cc1)N(=O)=O , P21212 ,0,0,1.3592671734200001,0.707866915423
2867, QIJDIW , CONC1C(COC(=O)c2ccccc2)OC(OC)C(OC(=O)c2ccccc2)C1OC(=O)c1ccccc1 , P21 ,0,0,1.2842257433,0.645504814885
2868, DIHXIE , O=C1c2ccccc2C(=O)C21CC(=C(CC2c1ccc(cc1)N(=O)=O)c1ccccc1)c1ccccc1 , P-1 ,1,1,1.28896839172,0.654453306746
2870, OCAYEW , O=C1C2CC3CC1C(N(C3)C2c1cccc(c1)N(=O)=O)c1cccc(c1)N(=O)=O , Pbca ,1,0,1.4353874209200002,0.701298701299
2872, SULZOP , CCOC(=O)C1(C#N)C(C1c1cccc(c1)N(=O)=O)C(=O)c1ccccc1 , P21/n ,0,0,1.32707782783,0.672104845383
2873, HIFFOU , Oc1c(cc(cc1C1=CC=C(N1)c1ccccc1)N(=O)=O)C1=CC=C(N1)c1ccccc1 , P-1 ,1,1,1.42693166931,0.726198552691
2876, AHADOE , COc1cccc(c1)C(CC(=O)c1cccc[n+]1[O-])CN(=O)=O , P21 ,0,0,1.36929046359,0.686791350088
2877, SALGOE , Cc1ccc(cc1)C1=[N+]([O-])ON=C1C#CC1=NO[N+](=C1c1ccc(C)cc1)[O-] , P-1 ,1,1,1.42243789103,0.698872785829
2878, YAGBEP , O=C1CCC(=O)N1OC(=O)C=CC1=CC=CO1 , Pbca ,1,0,1.49917737021,0.720837672965
2879, WOYTOT , O=C(CCN1N=Nc2ccccc12)c1ccc(cc1)N(=O)=O , P21/c ,1,0,1.5010659522,0.741214285714
2880, MIGNUM01 , ON=Cc1cccc(O)c1O , P21/c ,1,0,1.4816204831,0.721110287456
2882, AFONUE , O=N(=O)c1ccc([O-])c(C=[NH+]C2CCCCC2[NH+]=Cc2cc(ccc2[O-])N(=O)=O)c1 , P212121 ,0,0,1.41890899004,0.700789037374
2883, EQUSUE , OC1(CC(C(C(C1C(=O)c1ccccc1)c1ccccc1)N(=O)=O)c1ccccc1)c1ccccc1 , P21/c ,1,0,1.28499953777,0.6729216507179999
2886, YOWXEO , CC1(C)N([O])C(=N([O])C1(C)C)c1cccc(c2ccccn2)n1[O] , P21/c ,1,0,1.34963547523,0.685880077369
2887, YOTJEY , COc1ccc2C(=O)C34CN(CC3C(C)(C)ON4c2c1)C(=O)OC(C)(C)C , P-1 ,1,1,1.32169488938,0.6895322580650001
2890, XOCCAV , NN1N=C(C(=C1N)N(=O)=O)N(=O)=O , Pbca ,1,0,1.86545289685,0.7700480413899999
2891, HUQQEQ , CN1C(=O)N(C)C(=O)C(=Cc2cc(ccc2N2CCOCC2)N(=O)=O)C1=O , P21/n ,0,0,1.4818847650600002,0.7173654042800001
2893, YIJBEY , O=N(=O)c1ccc(cc1)C1C2N1CCN=C2c1ccccc1 , P21/n ,0,1,1.32427536997,0.65099378882
2894, EZUFIO , CC(C)CC(CC(=O)NC1CCCCC1)ONC(=O)C(C)(C)C , P212121 ,0,0,1.01200280168,0.630348762643
2895, IBETAK , O=C1CCCCC2=CCON1C2 , C2/c ,1,0,1.3197153941,0.72030761233
2896, GPHXAM , OCC1OC(NO)C(O)C(O)C1O , P21 ,0,0,1.6243907513799998,0.77074829932
2898, QIQBID , CC(=O)N1N=C(CC1C1=CC=C(O1)c1ccccc1N(=O)=O)c1ccc(C)cc1 , P-1 ,1,1,1.3446328249700001,0.686384893932
2899, IRUCAZ , COC(=O)C1=NON=C1N1C=CC=C1 , C2/c ,1,1,1.5125533455200002,0.7221602513750001
2900, IZIPOY , CC(C)(C)c1ccc(cc1)C(O)=Cc1nc2ccccc2nc1c1ccc(cc1)N(=O)=O , P-1 ,1,1,1.32465188873,0.6874722736650001
2904, CUFHAO , O=C(OC(=C1COCC1=Cc1ccccc1)c1ccccc1)c1ccc(cc1)N(=O)=O , Pbca ,1,0,1.3529245772100003,0.691365964582
2905, OSILUZ , CCOC(=O)C1(C(C)C1C=Cc1ccccc1)N(=O)=O , P212121 ,0,0,1.28359993414,0.683736717828
2906, SIMSAJ , O=C(CCC(=O)Nc1ccc(cc1)N(=O)=O)Nc1ccccc1 , P-1 ,1,1,1.4687025157799998,0.737124668435
2907, VUSCOD , CC(C)(C)NC(=NO)C(=NO)c1ccccc1 , P21/c ,1,0,1.20509664084,0.6486370788600001
2909, TUKRIB , O=C(OC1CCC2C(CCc3ccccc3)CC2=C1)c1cc(cc(c1)N(=O)=O)N(=O)=O , P21/c ,1,0,1.3417703345299998,0.684464539728
2910, OMIWEM , O=N(=O)c1ccn2cccn12 , P212121 ,0,0,1.56336359011,0.731233872859
2911, TIMTAK , CC12CCC(OCc3ccccc3)C1C(COC(=O)c1cc(cc(c1)N(=O)=O)N(=O)=O)CC2=C , P-1 ,1,1,1.31495214008,0.667729240457
2913, ZUGPOG , Cc1cccc(c1C#N)N(=O)=O , Pbca ,1,0,1.4412609041600002,0.725765765766
2914, BEBBIT , COC(=O)C1=C(O)CCC(CCCCCCC1=O)N(=O)=O , P21/a ,0,1,1.35750187056,0.7127890749600001
2915, GAPHOW01 , OC1=C(C(c2ccc(cc2)N(=O)=O)C2=C(O)c3ccccc3OC2=O)C(=O)Oc2ccccc12 , Pna21 ,0,0,1.49890704264,0.7023293607800001
2916, NUKPOZ , CCOC(=O)C1CC2(CC(CC(C1)(C2c1ccc(OC)cc1)N(=O)=O)C(=O)OCC)N(=O)=O , P21/n ,0,0,1.40122949118,0.704856857997
2917, AYAVIG , COC([O-])=C1C(=O)ON=C1c1[nH+]c(OC)nc(n1)N1CCCCC1 , P-1 ,1,1,1.43898695461,0.6889600179690001
2918, NIAMBP , Nc1ccc(cc1)c1ccccc1N(=O)=O , P21/c ,1,0,1.32380280327,0.678658424973
2919, SNQUOX02 , ON=C1C(=O)C=Cc2ccccc12 , P21/n ,0,0,1.5113164124399998,0.763139034878
2920, XIMJAE , CC1OC(COC(=O)c2ccc(cc2)N(=O)=O)C(C)C1OC(=O)c1ccc(cc1)N(=O)=O , P212121 ,0,0,1.3723332981799998,0.665116925313
2921, HIJZOQ , CCOC1ON2OC(C)C3=C(C2C1C)c1ccccc1OC3=O , P21/c ,1,0,1.38796789926,0.711556801979
2922, SULJIS , CON1C(C)(C)CC(CC1(C)C)OC(=O)c1ccccc1 , P21/a ,0,0,1.16041490686,0.6577536212089999
2923, MORPIT , COC(=O)C1CC2(C)C(C)C(CC2(C)C1C)=NNc1ccc(cc1N(=O)=O)N(=O)=O , P21/c ,1,0,1.31008353904,0.6737222659550001
2924, ESAMUI , NC1=C(C#N)C(C2C(=O)Nc3ccccc23)c2cc(ccc2O1)N(=O)=O , P-1 ,1,1,1.33816595713,0.623121334311
2925, YUXCUQ , CN1OCCC1(CN(=O)=O)C1COC2(CCCCC2)O1 , P21 ,0,1,1.2650082814499999,0.648233251634
2926, INODAQ , Cc1cccc(C)c1NC(=NO)C(=O)c1ccccc1 , P21/n ,0,0,1.20782133097,0.642125735913
2927, HIFSIZ , CC1(C)OCC(CO1)(OC(=O)c1ccccc1)N=O , P21/n ,0,0,1.3481985782400001,0.682189239332
2928, TIVMER , O=C(Nc1ccc(cc1)C#N)Nc1ccc(cc1)N(=O)=O , P21/n ,0,1,1.4727461696200002,0.7148243674770001
2931, HURQOC , CC(C)(C)OC(=O)N1OC(=O)CC1C1COC(C)(C)O1 , P212121 ,0,1,1.23136988376,0.629695
2932, PEZPUI , COc1c(OC)c2ccc3c4N5C(=C(C6=CC=C(N6)C(=C6C=CC(=N6)C(=C6NC(=C(c7ccccc7)c7ccc1c(c7)c24)C=C6)c1ccc(cc1)N(=O)=O)c1ccc(cc1)N(=O)=O)c1ccc(cc1)N(=O)=O)C=CC5=C3c1ccccc1 , P-1 ,1,0,1.14439911887,0.587674543502
2933, ASUJII , CCOC(=O)C(=C)C1C(C(C(C1c1ccccc1)C(=O)c1ccc(cc1)N(=O)=O)c1ccccc1)C(=O)c1ccc(cc1)N(=O)=O , P21/c ,1,0,1.35082247239,0.691195948677
2934, ZAGGOD , O=C1OCCOCCOCCOC(=O)C2CC(=NO2)c2cccc(n2)C2=NOC1C2 , Pbca ,1,0,1.3812358559399998,0.612760010501
2936, YELSOY , COc1cccc2C(=O)C(OC(=O)C34CCC(C)(C(=O)O3)C4(C)C)(c3ccccc3)C3=C(C)ON=C3c12 , P212121 ,0,0,1.31488806404,0.671650684973
2937, VACTOL , Oc1ccc2C=C(C(=O)Oc2c1)c1ccc(cc1)N(=O)=O , P212121 ,0,0,1.50697338917,0.712572585761
2939, TARZOD , CC(=NO)C(C)=NNC(=O)c1ccccc1 , Pbca ,1,0,1.32771412887,0.6997285747290001
2940, QUYSUA , COc1ccc2[N+](=C3C=CC(=O)C=C3C(c3ccccc3)(c3ccccc3)c2c1)[O-] , P-1 ,1,1,1.3208211734100002,0.675216232984
2941, BENWEY , CC1CC(=NO)C2C3C1C2(C)C(OC(C)=O)C(OC(C)=O)C(OC(C)=O)C3(C)C , P21 ,0,0,1.2157920661100001,0.635050625372
2942, KENMOF , CC1=C(C#N)C(=O)C(C)(N(=O)=O)C(C)(N(=O)=O)C1(C)N(=O)=O , P21/c ,1,0,1.54008016994,0.722270256917
2943, BIDCEW , Oc1ccc(O)c2C3CCOC3C(=Cc12)N(=O)=O , P-1 ,1,1,1.62278577408,0.758634339436
2944, MASNUS , O=C(OC1CC2(OC1c1ccccc1)OC(=O)C=C2)C=Cc1ccc(cc1)N(=O)=O , P1 ,0,1,1.40565881899,0.6842105263160001
2945, DAFXAM , OC(=O)c1c[n+]([O-])cc(c1)C(O)=O , Cc ,0,0,1.61557685931,0.713806584362
2946, PIJRUY , O=C1CCN2C(C(CN12)c1ccccc1N(=O)=O)c1ccccc1 , P21/c ,1,0,1.31900452825,0.664630103249
2948, QEBRIB , Cc1ccc(cc1)C1=NOC2=NC(=CN12)N(=O)=O , P21/c ,1,1,1.4825298731799998,0.6952521008399999
2949, NIXWUO , ON=C1c2ccccc2c2ccccc12 , P212121 ,0,0,1.3780154714200001,0.7229390681
2950, MAVHAT01 , O=C1Nc2ccccc2C21C(C(C1CCCN21)N(=O)=O)c1ccccc1 , C2/c ,1,0,1.3923752855200002,0.707186163939
2951, MODNUP , CC(=O)NNc1ccc(cc1N(=O)=O)N(=O)=O , P212121 ,0,0,1.5956401338400001,0.7254320987649999
2952, HALROB , CNC(=O)C1C(C(C(=O)NC)C(C)(O)CC1=O)c1cccc(c1)N(=O)=O , P21/n ,0,0,1.27756117314,0.639462694705
2953, ENBILO10 , CCC1=C(CC)C(NC1=O)=CC1=NC(=CC2=C(CC)C(=C(N2)C(=C2NC(=O)C(=C2CC)CC)N(=O)=O)CC)C(=C1CC)CC , P-1 ,1,1,1.17782413658,0.6703848662749999
2955, FASRUP , Cc1ccccc1C=CC(=O)c1ccc(cc1)N(=O)=O , Pca21 ,0,0,1.35253458045,0.704736231884
2956, NAPHAP , O=N(=O)N=C1NN=C(N1)N=[N+]=[N-] , P212121 ,0,0,1.7950258258400003,0.721999465384
2957, ZIHKOT , COC(=O)C1(CC([N+](=C1c1ccccc1)[O-])c1ccccc1)C(=O)OC , P21 ,0,0,1.3388991289,0.687700534759
2958, CUQXAN , CCCCC1(COC(=O)c2cc(cc(c2)N(=O)=O)N(=O)=O)CC2(OC(C)C(C)O2)C=C1 , C2 ,0,0,1.23303571241,0.631895307757
2959, KIQNUW , O=N(=O)C1=NN(CN2N=C(C=C2N(=O)=O)N(=O)=O)C(=C1)N(=O)=O , P212121 ,0,0,1.7556302716299999,0.709694894147
2961, MPIMZR02 , CC1(C)N([O])C(=[N+]([O-])C1(C)C)c1ccccc1 , C2/c ,1,1,1.27392862909,0.689206076942
2962, PUBMUU11 , O=N(=O)N1C2C3N(C1C1N(C(C(N3N(=O)=O)N1N(=O)=O)N2N(=O)=O)N(=O)=O)N(=O)=O , P21/n ,0,0,1.91481045685,0.719650527849
2964, VEJDAP , CC1(C)CC(=CC(C)(C)N1[O])C#CC#CCO , P21/n ,0,0,1.18929385656,0.689854460837
2965, XANLAC , O=N(=O)c1ccc(cc1)c1cnc2ccccc2n1 , P21/c ,1,0,1.44710758062,0.7064296439300001
2966, GIKQUM , CC1OC(COC(C)=O)C(OC(C)=O)C2CC(=O)ON12 , P212121 ,0,0,1.35145877567,0.664427901847
2967, UBIFAM , COCC1CC2=CC(=NOCc3ccccc3)C(=CC32OC1(COC)Cc1cc(OC)c(OC)cc31)OC , P212121 ,0,0,1.30710702146,0.688753837367
2968, SAXJEJ , CN1C=[N+]([O-])C(=C1C)C(=O)Nc1ccc(cc1)N(=O)=O , P-1 ,1,1,1.56601212883,0.7607691315009999
2972, MAXPOR , COc1cc2C=CC3(Oc2c(c1)N(=O)=O)N(c1ccccc1)c1ccccc1C3(C)C , P21/c ,1,1,1.28396801858,0.658780487805
2973, DOJKUJ , ON1C=C[N+](=C1)[O-] , P21/c ,1,0,1.62789156962,0.7360078130869999
2975, DATLAO , CC1(C)CCCC(C)(C=O)C1CN(=O)=O , P212121 ,0,0,1.25655761161,0.709540780969
2976, TORLIW , CCOC(=O)C1C(C(C)C)N(OC1(C)O)C(=O)c1cc(cc(c1)N(=O)=O)N(=O)=O , P21/c ,1,0,1.41263327061,0.680367921817
2977, NUMNAM , CON(C)C(=O)C1CCCN1C1(c2ccccc2)c2ccccc2c2ccccc12 , P212121 ,0,0,1.2775220478899998,0.693644027659
2980, CABQED , CC(OC(=O)c1ccc(cc1)N(=O)=O)C1=NC(=NN1)C(C)OC(=O)c1ccc(cc1)N(=O)=O , P21 ,0,0,1.45128390398,0.6903422375499999
2981, SUQYEJ , CC1(C)CCCC(C)(C)N1OC1C(N(C(=O)c2ccccc2)c2ccccc12)c1ccccc1 , P-1 ,1,1,1.20085327521,0.6625501662650001
2982, TAPJUP , CC1(O)c2ccccc2[N+]2=NOC(=C12)[O-] , P21/a ,0,0,1.46915025907,0.701177043097
2983, CUMTUZ , O=NN1CC2(CN(CC(C1)(c1ccccc1)C2=O)N=O)c1ccccc1 , Pca21 ,0,0,1.36965863693,0.6764093471539999
2984, PORFUZ , Cc1ccc2cc(c[n+]([O-])c2c1)N(=O)=O , Pca21 ,0,0,1.44165235481,0.693540224631
2985, MNPHOL12 , Oc1cccc(c1)N(=O)=O , P21/n ,0,0,1.47131128352,0.697255333456
2986, PEYTOD , CCCOc1ccc(C=CC=CC=Cc2ccc(cc2)N(=O)=O)cc1 , P21/c ,1,0,1.25120386362,0.688215797044
2987, EGUZIQ , COc1ccccc1C=NNC(=O)c1ccccc1N(=O)=O , P-1 ,1,1,1.3375999151,0.656718500797
2988, ZAPDUR , Nc1ccc(cc1)C(=O)NN=Cc1cccc(c1)N(=O)=O , P21/n ,0,0,1.45949519375,0.717543436293
2989, HABZUF , CC(=O)CCC1(CCCCCCCCCCC1=O)N(=O)=O , P21/n ,0,0,1.2003988741299998,0.670464637303
2990, QOZRAY , CN(C)Cc1ccccc1NC(=NO)c1c(C)cc(C)cc1C , P-1 ,1,1,1.14258945778,0.652514324638
2991, QABDII , CC(C)C(COCc1ccccc1)N([O])=Cc1ccccc1 , P212121 ,0,0,1.20198635408,0.682795698925
2992, GOZFIM , CN1Cc2ccccc2NC1c1ccccc1N(=O)=O , Pbca ,1,0,1.3635907224200001,0.699558577905
2993, PYRDNO11 , [O-][n+]1ccccc1 , P41212 ,0,0,1.3584031438600002,0.7346215781000001
2994, DARGAF , O=N(=O)c1cc(c(Oc2ccccc2)c(c1)N(=O)=O)N(=O)=O , P212121 ,0,0,1.5952039185299998,0.714821169971
2995, YERTUL , COc1cc(ccc1OCCOc1ccc(cc1N(=O)=O)N(=O)=O)C=NC1=C(C)N(C)N(C1=O)c1ccccc1 , P-1 ,1,1,1.4063017880500002,0.6884801734029999
2996, QIMGIC , CC(=O)C1=C(C)OC(=C(C#N)C1c1cccc(c1)N(=O)=O)N , P-1 ,1,1,1.41118319229,0.69485860141
2998, CAQRAQ , CC1CC=CC2=CC(OC(=O)c3ccc(cc3)N(=O)=O)C3OC2C21CCC(OC(=O)c1ccc(cc1)N(=O)=O)C32 , P21/n ,0,0,1.4132856627000001,0.6947721317669999
3000, APUHAV , COC(=O)C1(CC2COC(N2C1=O)c1ccccc1)c1ccc(cc1N(=O)=O)N(=O)=O , P21 ,0,1,1.46713426359,0.689011591479
3001, ACALIZ , CCc1cccc(CC)c1NC(=O)c1ccc(cc1)N(=O)=O , Cc ,0,1,1.23949063878,0.652847805789
3003, YAXCUX , Cc1ccc2c(c1)c(cc(C)n2[O])c1ccccc1NCc1ccccc1 , P21/n ,0,0,1.2688380073899999,0.6934336031270001
3004, YIZHOF , O=N(=O)C1C(ON(C1c1ccccc1)c1ccccc1)c1ccc(cc1)N(=O)=O , P21/n ,0,0,1.3641308711700002,0.701680672269
3005, ALASOV , CC(C)=CCCC(C)(C#CCOC(=O)c1ccc(cc1)N(=O)=O)C(COC(=O)c1ccc(cc1)N(=O)=O)OC(=O)c1ccc(cc1)N(=O)=O , P21/c ,1,0,1.38923638226,0.7250286041189999
3006, LEPMUR , CCN1C(=O)CC(C1=O)c1cccc(c1C=O)N(=O)=O , P-1 ,1,1,1.48519516,0.7190185475900001
3008, MUDWEO01 , O=N(=O)c1cc(c(Nc2ccccc2)cc1Nc1ccccc1)N(=O)=O , P21/c ,1,0,1.40228621903,0.676452981908