ID,name,smiles,space_group,inversion_symmetry,beta_packing,density,packing_coefficient
2300, NAGTOH , CCN1C=C(C(=O)c2ccccc12)N(=O)=O , P212121 ,0,0,1.48974959379,0.7405854379539999
2301, BABTAA , [O-][N+](Cc1ccccc1)=Cc1ccccc1 , Pbca ,1,0,1.21617936987,0.616241930003
2302, EWEFAP , COc1ccc(cc1)C(C)(C)C(C)(C)C(OC(=O)c1cc(cc(c1)N(=O)=O)N(=O)=O)c1ccccc1 , P21/n ,0,0,1.31199275577,0.670739164697
2303, UROJOC , CC(C)CC(NC(=O)OCC1c2ccccc2c2ccccc12)C(=O)ON(C)C(=O)NC(C(C)C)C(=O)OC(C)(C)C , P212121 ,0,0,1.2364624073100001,0.666071964018
2304, JEKYUU , CC(CCOC(=O)c1cc(cc(c1)N(=O)=O)N(=O)=O)C1CC1C1COC(C)(C)O1 , P212121 ,0,0,1.3635021069100002,0.692041495941
2305, ATOJUQ , O=C1NCCC2=C(ON=C12)c1ccccc1 , C2/c ,1,1,1.3972571122600002,0.7108633372050001
2306, MEFTAT , CC1(C)OC(CN=[N+]=[N-])C2C(O)C1CON2Cc1ccccc1 , P212121 ,0,0,1.29091879358,0.676618842659
2307, AXTMHP , CC(=O)N1CCC(C)(C)N([O])C(C)(C)C1 , P21/n ,0,0,1.1604672061799999,0.668888554141
2308, KOMVEN , CC1(C)OC2OC3C(CC(OC(=O)c4ccc(cc4)N(=O)=O)C#C)OC(OC3C2O1)c1ccccc1 , P21 ,0,0,1.36748704431,0.6255064167909999
2309, JOKLOK , CN1OC(=O)C2=C1CCCC2=C , P21 ,0,1,1.28066623632,0.661367704977
2310, DUPJAA , CC(C)(C)c1cc2C=C(C(=O)Oc2c(c1)C(C)(C)C)c1ccc(cc1)N(=O)=O , Pbca ,1,0,1.22904686535,0.657850707851
2311, REMLED , O=C(OC1CC(C2OC12)N(Cc1ccccc1)Cc1ccccc1)c1ccc(cc1)N(=O)=O , P21/n ,0,0,1.30901383178,0.680290148448
2312, TAYVOE , COC(C(=O)ON(C(C)C#C)C(N)=O)c1ccccc1 , C2 ,0,0,1.26911859535,0.663249832605
2313, MEGSIB , CCN1c2ccccc2c2cc(ccc12)c1ccc2N(CC)c3ccccc3c2c1N(=O)=O , Cc ,0,1,1.28716293724,0.668982578397
2314, NOHREJ , COC1(COCc2ccccc2)OC(COCc2ccccc2)C2C(C12)N(=O)=O , P21 ,0,0,1.25904943515,0.65164130956
2316, OGEPUM03 , O=C(Nc1cccc2cccnc12)c1ccc(cc1)N(=O)=O , P21/c ,1,1,1.45292582496,0.712823725982
2317, LANNUL , COc1ccccc1NN=C(N=Nc1ccccc1OC)N(=O)=O , P-1 ,1,1,1.48061289097,0.7267554635979999
2318, GIZPAG , COc1ccc(cc1)C(=CC1=CC(=NO1)c1c(C)cc(C)cc1C)C#N , P21/c ,1,1,1.22181760795,0.661072428972
2319, UXAYEY , COC(=O)CCC1(C(OCC#C)OC(COCc2ccccc2)C(OCc2ccccc2)C1OCc1ccccc1)N(=O)=O , P21 ,0,0,1.26777942685,0.663004122103
2320, QIKXEP , OC12N(OC=C1C(=O)c1ccccc1)C(=O)c1ccccc21 , P21/c ,1,0,1.4364170562,0.7010713597179999
2321, IQADOT , CCOc1cc(ccc1O)C=NOc1ccc(C=NOc2ccc(C=NOCc3ccccc3)cc2N(=O)=O)cc1C , P-1 ,1,1,1.3559740931600002,0.695428475034
2322, CUYKOW , O=C1CCOC(=O)CCCCCCC(CC1)N(=O)=O , P21/c ,1,0,1.29229931917,0.702384985615
2323, PUFMEJ , O=N(=O)c1ccccc1NN=CC1=CC=CO1 , P21/n ,0,0,1.45239631984,0.7008279124779999
2324, KEXKED01 , O=N(=O)C(c1ccccc1)=C(N1CCOCC1)c1ccccc1 , P21/n ,0,0,1.2918655990999999,0.6741303672650001
2325, FUPWOC , CCOC(=O)C1CC2=C(Nc3ccccc23)C2CC(CC(O)=O)ON12 , P21/c ,1,0,1.23235802249,0.5997072727839999
2326, PEKSAZ , None , Pna21 ,0,0,1.3881389915399998,0.699849611242
2327, MNPYDO11 , Cc1cn([O])ccc1N(=O)=O , P212121 ,0,0,1.5343987898299998,0.731001136337
2330, FOCWOL , CC(C)(CN1CCN(CC1)C1=NOc2ccccc12)C(O)=O , P21/n ,0,0,1.3447608534200002,0.707316573862
2331, TUNPIC , CN1CCN(CC1)c1ccc(c(N)c1)N(=O)=O , P21/c ,1,0,1.36617437583,0.703615940511
2332, PERCEV , COC1=CC(ON(Cc2ccccc2)C1C1COC(C)(C)O1)c1ccccc1 , P21 ,0,1,1.2600095027299998,0.6851206636499999
2333, YEDKEA , CC(O)=C(C(C)=O)c1c(cc(c2cccnc12)N(=O)=O)N(=O)=O , C2/c ,1,0,1.53560490994,0.72200212635
2334, SUMYAA , COC(=O)C1(CCC(C)CC1OC(=O)c1cc(cc(c1)N(=O)=O)N(=O)=O)C(C)(C)C=C , P-1 ,1,1,1.33710312796,0.682549876732
2335, XOSHES , O=N(=O)c1cccc(CC#N)c1 , P21/n ,0,0,1.4530639066100002,0.7377258547409999
2336, HOQQUA , C1COC(O1)C1CC2CON=C2C1c1ccccc1 , P21 ,0,0,1.30301035906,0.681480178278
2337, NOHGEY , CCOC(=O)C1(C#N)C(CCC1C(CC)C(=O)c1ccc(OC)cc1)CON1C(C)(C)CCCC1(C)C , P21/c ,1,0,1.21255116585,0.688021061869
2338, NUCGEX , CC1Cc2ccccc2C2C3C(ON12)C(=O)N(C)C3=O , P21/c ,1,0,1.39472707933,0.711902923331
2340, TAWDEC , CCON(OC)C(=O)c1ccc(cc1)N(=O)=O , Pca21 ,0,0,1.4105139603999999,0.703416447224
2342, VOSQUP , CC1(C)N([O])C(=[N+]([O-])C1(C)C)c1ccc(O)c(CN2CCCCC2)c1 , Pbca ,1,0,1.23616616337,0.679056795132
2343, RAQQAE , CON=C1NC(=O)c2ccccc12 , P21/c ,1,0,1.39984984713,0.6952454895
2344, FIFLIP , O=C1c2cccc3cccc(c23)c2c3ccccc3c(cc12)N(=O)=O , P21/a ,0,1,1.5161392930000002,0.744440027386
2345, HIVBIY , CC(=O)N(O)c1ccccc1C , P21/c ,1,0,1.2697276100200001,0.6798297810959999
2346, POXYUW , CC1(CCCC(C)(N1[O])c1ccccc1)c1ccccc1 , P21/c ,1,0,1.17451910759,0.66015387368
2347, KABDUN , CC1CCC2(CC1)ON=C1NCCN21 , P21/c ,1,0,1.24717904128,0.677346801347
2349, SEJNEA , CC(C)N(C(C)C)c1ccc(cc1N(=O)=O)N(=O)=O , C2/c ,1,0,1.30881178168,0.698380520432
2350, QOXQUQ , COC(=O)C1C(CN(Cc2ccccc2)C1=O)C(=C(C)C)c1ccc(cc1)N(=O)=O , P-1 ,1,1,1.28389141093,0.677789638932
2351, ZOPYOU , CCOC(=O)C1(C(CON2C(C)(C)CCCC2(C)C)CC(C#N)C1c1ccccc1)C(=O)OCC , P-1 ,1,1,1.21697012826,0.679858870968
2352, MFCBXA , CC1=N([O])ON=C1C(N)=O , P21/n ,0,0,1.569308594,0.7091956967209999
2353, VAGTED , CCNC(N)=NN(=O)=O , P21/n ,0,0,1.42248643229,0.686619279212
2354, SUNCOU , O=N(=O)CC(C(CN(=O)=O)c1ccccn1)c1ccccn1 , P21/c ,1,0,1.41103092354,0.701789053204
2355, SAGLES , COC12OCCCC1C=CC2COC(=O)c1ccc(cc1)N(=O)=O , P-1 ,1,1,1.38714392086,0.688568376068
2356, UWUSOV , COC1CC(=O)CC2C3=N([O])ON=C3C3=N([O])ON=C3C12N(=O)=O , P21/n ,0,0,1.71493952107,0.7355275443510001
2357, ODIYIM , COc1ccc(N(O)C(C)(C)C)c(CN(Cc2cc(OC)ccc2N(O)C(C)(C)C)Cc2cc(OC)ccc2N(O)C(C)(C)C)c1 , P-3 ,1,1,1.07910523829,0.593822060289
2359, MEWLIL , C=CCN1C(=O)Nc2cc(ccc12)N(=O)=O , Pbca ,1,0,1.42203513977,0.682470835724
2361, YARPAJ , COc1ccc(cc1)[N+]1=NOC(=C1C1=NOC2=C1C(=O)c1ccccc1C2=O)[O-] , P21/n ,0,0,1.52484641924,0.672594408134
2362, CTMTNA09 , O=N(=O)N1CN(CN(C1)N(=O)=O)N(=O)=O , Pbca ,1,0,1.8234409538299998,0.75459576609
2363, WAJRIL , CC1=NN(c2ccccc2)C(=O)C21C(CN(=O)=O)c1ccccc1C2=Cc1ccccc1 , P21/n ,0,0,1.3462826820500002,0.7029030356620001
2364, EWUKIQ01 , O=N(=O)N=C1NCN(CN1)N(=O)=O , P21/c ,1,0,1.7338148554099997,0.7205299966300001
2365, NANVED , CCOC(=O)C(C#N)(c1ccccc1)c1ccc(cc1N(=O)=O)N(=O)=O , P21/c ,1,0,1.42895885008,0.701886436521
2368, TICVOR , COc1cc(c(OC)cc1C1=[N+]([O-])C(C)(C)C(C)(C)N1[O])C1=[N+]([O-])C(C)(C)C(C)(C)N1[O] , P21/c ,1,0,1.3020849760200002,0.685091046021
2369, HQUINO10 , Oc1cccc2ccc[n+]([O-])c12 , P21/c ,1,0,1.4450318580300001,0.722245404868
2370, NXENAM , O=N(=O)OCCN(CCON(=O)=O)N(=O)=O , Pca21 ,0,0,1.66524961018,0.678594018252
2371, OCARPO , COc1ccc2C(O)C3c4cc5OCOc5cc4CC[N+]3([O-])Cc2c1OC , P212121 ,0,0,1.4157941998299999,0.6871771298489999
2372, HXTHQO , [O]n1cccc2C(O)CCCc12 , P21/c ,1,0,1.4020908670899999,0.746818891491
2373, VORDOX , COc1ccc(cc1)C1OC(c2ccc(cc2)N(=O)=O)C2(O1)C(=O)N(Cc1ccccc1)c1ccccc21 , P-1 ,1,1,1.3607843893,0.6793103448280001
2374, CIRLUL , CC(N(C(C)c1ccccc1)C(=O)c1ccccc1N(=O)=O)c1ccccc1 , P212121 ,0,0,1.26415751228,0.664167691483
2375, EGABAQ , CC=C(C1O[N+](=C(C1C)C(=CC)c1ccccc1)[O-])c1ccccc1 , P21/c ,1,0,1.1760382253200001,0.6519502962479999
2376, TIJPAE , O=N(=O)C1=CC2=NOC(=C2C=C1)c1ccccn1 , P21/n ,0,0,1.58163362195,0.7514389648659999
2377, TOWSIJ , CN1c2ccc(cc2N=C1c1ccccc1C(C1CC(=O)N(C1=O)c1ccc(C)cc1)=C1CC(=O)N(c2ccc(C)cc2)C1=O)N(=O)=O , P2/n ,0,0,1.18557646824,0.586781312049
2378, IREPOM , O=C(OCC(N(=O)=O)(N(=O)=O)N(=O)=O)C(=O)N=[N+]=[N-] , P21/c ,1,0,1.7876865679900003,0.707268323996
2379, BOPCEP , CC1=NOC(C1)C1(O)CC2CCC1N2C(=O)OC(C)(C)C , P21/c ,1,0,1.2341505861700002,0.657546082949
2380, JULHED01 , O=N(=O)c1ccccc1C=NN=Cc1ccccc1N(=O)=O , P21/n ,0,0,1.49441294512,0.720469726864
2381, UJULIU , NC(C=CC(N)=NO)=NO , Pca21 ,0,0,1.5612683471200002,0.7674824315690001
2385, DASRUL , CC(C)(C)c1cc(cc(C=NCCN=Cc2cc(cc(c2O)C(C)(C)C)N(=O)=O)c1O)N(=O)=O , R-3 ,1,0,1.17417015722,0.690132831505
2386, ICUWUB , Cc1ccccc1N(O)C(C)(C)C(=O)C=CNc1ccccc1 , P21 ,0,1,1.22031997884,0.6810173810169999
2387, DEQPUN , CC1=Nc2ccccc2CN=C1c1cccc(c1)N(=O)=O , P-1 ,1,1,1.33776505371,0.679100908656
2388, AXIQAA , [O]n1ccc(cc1)c1ccccn1 , P212121 ,0,0,1.31884192294,0.690358715714
2389, MANXUW , CCCCOC1CNc2ccc(cc2O1)N(=O)=O , P-1 ,1,1,1.32815242682,0.671751937984
2390, IZUFIS , O=N(=O)c1cc2ccccc2nc1c1ccccc1 , Pcab ,0,0,1.3739298296899998,0.704843167888
2391, HAMJEM , CCOC(=O)c1ccc(O)c(C=CCc2ccccc2N(=O)=O)c1C , P-1 ,1,1,1.3365165140700002,0.678341841558
2392, PILVIP , COC(=O)c1ccccc1NC(=O)c1ccccc1NC(=O)c1cccc(C(=O)Nc2ccccc2C(=O)Nc2ccccc2C(=O)OC)n1[O] , P2/n ,0,1,1.42025981699,0.705090679522
2393, QOYHAO , CC(=NNc1cccc(c1)N(=O)=O)c1ccccc1O , P21/n ,0,0,1.41214565725,0.710109302659
2394, JECVOC , CCOCC1CC(N(O1)c1ccccc1)C(=O)c1ccccc1 , Pbca ,1,0,1.25124918802,0.6805872144830001
2396, FICHAB , CC(=O)Nc1c(C)cc(cc1C)N(=O)=O , P-1 ,1,1,1.35326515278,0.699013907889
2398, TERWES , C1CCC2(OC1)OCC(OC12CCCCO1)C1CC(=NO1)c1ccccc1 , P21 ,0,0,1.32570230681,0.692808333333
2399, TENXUI , CON(C)C(=O)c1cc2CCc3ccc(CCc1cc2)cc3C(=O)N(C)OC , Pbca ,1,0,1.36962331417,0.73945502053
2400, SOYDIV , O=N(=O)N(CC(N(=O)=O)(N(=O)=O)N(=O)=O)C1=NON=C1N=NC1=NON=C1N(CC(N(=O)=O)(N(=O)=O)N(=O)=O)N(=O)=O , P21/n ,0,1,1.8668285778799998,0.716253270539
2401, OSAQEG , O=N(=O)c1ccccc1C#C , P21/c ,1,0,1.42916190486,0.790726817043
2402, PABPOX , CN(C)CCCNc1c2ccccc2nc(C)c1N(=O)=O , P21/c ,1,1,1.25691701941,0.677908615137
2403, LECMIS , CC1=NC2(C)CCC3C(CC3(C)C)C(CCC2O1)=NO , P21 ,0,0,1.1275223433700001,0.630449569066
2404, WACHUG , O=N(=O)c1ccc2OC(CC(C=C(c3ccccc3)c3ccccc3)c2c1)(c1ccccc1)c1ccccc1 , Pca21 ,0,0,1.2747140735200002,0.670323928945
2405, AVUSAN , CCOC(=O)C(=NO)C(=O)c1ccc(OC)cc1 , P21/c ,1,0,1.4420413907700003,0.7319788754269999
2406, DOHCOS10 , Cc1c(c(C)c(c(c1N(=O)=O)C(C)(C)C)N(=O)=O)N(=O)=O , P21/a ,0,1,1.38430075609,0.682832908897
2407, TPNITR , [O]N(c1ccccc1)=C(c1ccccc1)c1ccccc1 , Pbca ,1,0,1.26103450164,0.6814163614159999
2408, TAGMIA , COc1ccc(CN(N=O)c2ccccc2)cc1 , P21 ,0,0,1.32351195734,0.6985869847030001
2409, AZABEJ , CCOC(=O)C1=C(C)N(N=N1)c1ccc(cc1)N(=O)=O , P21/c ,1,0,1.49415557072,0.733306836248
2410, GIJDAG , OC1C(OCc2ccccc2)C(OCc2ccccc2)C(OCc2ccccc2)C(OCc2ccccc2)C1OC(=O)c1ccc(cc1)N(=O)=O , P21/c ,1,0,1.24460242501,0.640718970952
2411, JERJAS , COC(=O)CCC1(C=CCCC1c1ccc2OCOc2c1)N(=O)=O , P21 ,0,0,1.39040810313,0.696100202587
2414, MIZXOK , OC(=O)C=Cc1ccccc1[N+]([O-])=Nc1ccccc1 , P21/n ,0,1,1.4058412317500002,0.71665700903
2415, NAXJON , O=C(NCc1ccccc1)NC1=NON=C1C=Cc1ccccc1 , P-1 ,1,1,1.3508208308899998,0.692568542569
2416, HEFWAR , None , Pnma ,1,0,1.2964930563600001,0.70273008725
2417, YUPGOF , CC(C)(C)C(=NO)C(C)(C)C , P21/c ,1,0,1.06117043587,0.667904328723
2418, QUBBAS , CCCCCCCCOc1c2C3c4ccccc4C(c4ccccc34)c2c(N=Nc2cc(cc(c2)N(=O)=O)N(=O)=O)c2C3c4ccccc4C(c4ccccc34)c12 , P21/c ,1,1,1.2929809862000001,0.665592931574
2419, VOKRET , COc1c2Cc3cccc(Cc4cccc(Cc5cccc(Cc1ccc2)c5OC(=O)c1cc(cc(c1)N(=O)=O)N(=O)=O)c4O)c3O , Pbca ,1,0,1.3832587223,0.636434395278
2420, SEKGOF , CC1(C)CC(C)(C)[N+](=C(N1[O])c1cccnc1)[O-] , P21/n ,0,0,1.28493686317,0.6938679529699999
2423, IKOBUF , CCOC(=O)C1C(C)CC2=C3C(=NO2)c2c(OC)cccc2C(=O)C13O , P-1 ,1,1,1.39918004133,0.6892197900229999
2424, KEFVIA , O=N(=O)c1ccc(cc1)C1C2CCC(C2)C1c1ccccc1 , P21/n ,0,0,1.24911225275,0.6840040723440001
2425, BERCOT , COc1cc(c(OC)c2C(=O)N(C)C=Cc12)N(=O)=O , P21/c ,1,0,1.48692806123,0.721081124114
2426, DUGMUN , ON=C(C#N)c1ccccc1 , P21/c ,1,0,1.35587967732,0.709860080396
2427, LOQBID , CN1OC(=O)Cc2ccccc2c2ccccc2CC1=O , P21/c ,1,1,1.3832052917500002,0.7235492577600001
2428, HAVMUM , COc1ccc(cc1)c1cc(c2ccccc2)c(C#N)c(c2ccccc2)c1N(=O)=O , P21/c ,1,0,1.2697270207200002,0.665202793446
2429, NANILI26 , Nc1ccc(cc1)N(=O)=O , P21/n ,0,0,1.4781272137600001,0.7257142154389999
2430, TAGZIK , CC1N=NC(C)(C1C(OC(C)=O)C(OC(C)=O)C(OC(C)=O)C(COC(C)=O)OC(C)=O)N(=O)=O , P212121 ,0,0,1.34501580353,0.60198305593
2431, FAVVII , CCCC1CCC2C(C)CCCC2N1C(=O)c1ccc(cc1)N(=O)=O , C2/c ,1,0,1.1745110052299998,0.632983196611
2432, PICANO04 , [O]n1ccccc1C(O)=O , P21/m ,0,1,1.56562820274,0.741789519778
2433, ZARGIK , COC(=O)C1(O)CC(NO1)c1ccccc1 , P21/n ,0,0,1.32696813379,0.663333333333
2434, RIWPIW01 , ON=C1C=CC(=O)c2ncccc12 , P21/n ,0,0,1.4964489509099999,0.7161356209149999
2435, NERTIQ , CCCCNC=C(C(=O)C(=O)OCC)C(=O)c1ccc(cc1)N(=O)=O , P21/c ,1,0,1.33568891998,0.6889068789489999
2436, GADFOJ , Cc1cccn([O])c1c1cccc(c1)C(=O)OC(C)(C)C , P21/c ,1,0,1.24340007257,0.678519583184
2437, JINYEK , CN1N=NN(C)C(C)(C)C1=Nc1ccc(cc1N(=O)=O)N(=O)=O , P21/c ,1,0,1.38185046326,0.662233273056
2439, NOTFEJ , CN(C)c1ccc(cc1)C=CC12Oc3ccc(cc3CN1c1ccccc1C2(C)C)N(=O)=O , C2/c ,1,0,1.23267040596,0.651758223951
2440, CUNNEG , CON1C(=O)c2ccccc2C21CCCCC2 , P212121 ,0,0,1.28514473406,0.697145793801
2441, XEWJIU , O=N(=O)c1ccc(cc1)N1CCCC1C1CCCN1c1ccc(cc1)N(=O)=O , I41/acd ,1,0,1.2251776171200002,0.624131342116
2442, UMOMEQ , CC1=NOC(=O)C1=Cc1ccc(cc1)N1CCCC1 , P21/c ,1,1,1.28532505483,0.6778743315510001
2443, SETPOW , COC1(C)CC2CC1CC(=NNc1ccc(cc1N(=O)=O)N(=O)=O)C2C , P212121 ,0,0,1.31808573842,0.670039517733
2444, AGAFOF , O=N(=O)C1=C(NCc2ccccc2)C(=C(N(Cc2ccccc2)Cc2ccccc2)C2=NON=C12)N(=O)=O , P-1 ,1,0,1.39545890469,0.7157647956209999
2445, NIKPEE , OCC1OC(CC1O)N1C=Cc2c1nccc2N(=O)=O , P212121 ,0,0,1.5463659765900002,0.7348678601880001
2448, SEFJEU , Cc1ccc(cc1)N=Nc1ccc(O)c(C=NO)c1 , P21/n ,0,0,1.39781044111,0.717970008052
2449, WORWAB , CCOC(=O)C1(CCCC(C)(C1CC(C)=O)N(=O)=O)C#N , P21/n ,0,0,1.36305356305,0.699282938422
2450, CURSEP , O=N(=O)c1ccc(cc1)C=Nc1ccc(Nc2ccccc2)cc1 , Cc ,0,0,1.3691835538600001,0.710531135531
2451, BEJCAW , [O-][N+]1=C(C(CCC=C1)=Cc1ccccc1)c1ccccc1 , Cc ,0,0,1.23866314106,0.681567841132
2452, BULJEX , ON1N=Nc2ccccc2C1=O , P21/n ,0,0,1.57529255014,0.7326663766859999
2453, DAMTUH , CCOC(=O)C1=NOC2C1CC1ON=C(C21)C(=O)OCC , Pbca ,1,0,1.39378360059,0.69843715847
2454, HABPIJ , COC(=O)C1=C(C)NC(=C(C1c1cccc(c1)N(=O)=O)C(=O)OCCON(=O)=O)C , P212121 ,0,0,1.46714670613,0.7095441595440001
2455, POYWAC , ON(C1CC(C=C1)C1CC(=O)N1)C(=O)Cc1ccccc1 , P21/c ,1,0,1.3871869047,0.732508361204
2456, SIQKOS , CC1(C)N=C(N([O])C1(C)C)c1ccc(cc1)N([O])c1ccc(cc1)C1=[N+]([O-])C(C)(C)C(C)(C)N1[O] , Pna21 ,0,0,1.28777233737,0.681454753291
2457, YAJSAE , CC1=C2C=CCC2CC2C1CCCC2=NNc1ccc(cc1N(=O)=O)N(=O)=O , P21/c ,1,0,1.34183492403,0.678360315584
2458, IQUTIY , COC(=O)C(NC(=O)OCc1ccccc1)C1CCCC1N(=O)=O , P-1 ,1,1,1.3469593505700002,0.6738503774879999
2459, VIBCAM , OCCN1N=C(c2ccccc2)C(=NO)C1=O , P21/n ,0,0,1.3597352126299997,0.667451219512
2460, GACYOZ , CCOc1ncc(cc1N(=O)=O)N(=O)=O , P21/n ,0,0,1.6187546078900001,0.73704734419
2461, ELUDEV01 , O=N(=O)NC1=NON=C1N=NC1=NON=C1NN(=O)=O , P21/c ,1,0,1.95716342301,0.758808095952
2463, QUNDUZ , CC1(C)OC2OC(C3CC4CC(N3O4)c3ccccc3)C3OC(C)(C)OC3C2O1 , P21 ,0,0,1.31629779115,0.682854469206
2464, BORHAS , COCCNC(=O)NN=CC1=CC=C(O1)N(=O)=O , P21/n ,0,0,1.45566139864,0.694378806973
2465, FIPNUP , COc1ccc2C(OC(C)Cc2c1)c1cccc(c1)N(=O)=O , P212121 ,0,0,1.36910725151,0.7122981956319999
2466, LETNAZ02 , CC1=C(C(=NN1)C)N(=O)=O , P3121 ,0,0,1.3343088136599999,0.641866111689
2467, TICYEJ , O=N(=O)c1ccc(C=Cc2ccc(cc2)C#C)cc1 , P21/n ,0,0,1.3408230515200001,0.7155698234350001
2468, TOLXUO , CC1=CN(C2CC3(O)CC(=NOCc4ccccc4)C(O)C3O2)C(=O)NC1=O , P21 ,0,0,1.4424213673500001,0.710238138045
2469, VOXPIH , Oc1ccccc1C=Nc1cccc(c1)N(=O)=O , Pca21 ,0,0,1.42623102408,0.716109718741
2470, AZABUA , COC(=O)C1=C(N(Cc2ccccc2)N=N1)C1=C(N(N=N1)c1ccc(cc1)N(=O)=O)C1=C(C)N(Cc2ccccc2)N=N1 , P21/c ,1,0,1.3376013149500001,0.653011650004
2474, LUVPIC , CN(CN1C=NN=N1)N(=O)=O , P21 ,0,0,1.61137655899,0.740912500852
2475, BAPWUM , CC1(COC(=O)c2ccc(cc2)N(=O)=O)Cc2ccccc2C1OC(=O)c1ccc(cc1)N(=O)=O , P1 ,0,1,1.38910680898,0.677247401693
2478, TANGAQ , CC(=O)C1(CC2CC1C=C2)OC(=O)c1ccc(cc1)N(=O)=O , P21/c ,1,0,1.39877294732,0.643303186908
2479, SEJCAM , COC(=O)C1=C(C)ON=C1c1c(C)cc(C)cc1C , P212121 ,0,0,1.22153937675,0.659137098118
2480, HUDFIV , COC(=O)c1ccc(COC2CC(CC32C(=NOC23C3OC3C(=O)C3OC23)C)C(C)=C)cc1 , P212121 ,0,0,1.30386718405,0.66473355544
2481, EPAHOT , O=CC1=NOC(=C1)C1=CC=CO1 , P21/c ,1,1,1.5145864744100002,0.728898083624
2482, OFUZUM , COC(=O)C1(OC(C=Cc2ccccc2)C(C1c1ccccc1OC)N(=O)=O)c1ccccc1 , P21 ,0,0,1.31667427234,0.682260720638
2484, UVIPEV , O=C(ON=Cc1cc2OCOc2cc1c1ccccc1)Oc1ccccc1 , P-1 ,1,1,1.41905105676,0.7074275362319999
2485, HIMWIJ01 , COc1cc(ccc1O)C=Cc1ccc(cc1)N(=O)=O , C2/c ,1,0,1.3636041376299999,0.635505466739
2487, AJIMAJ , CCOC(=O)C1(C(CN(=O)=O)c2ccc(OC)cc2)N(CCC1=O)C(=O)OC(C)(C)C , P212121 ,0,0,1.31589792306,0.683676929942
2488, YOKPOF , COc1ccc(cc1)C1C(C2N(CCc3ccccc23)C21C(=O)c1cccc3cccc2c13)N(=O)=O , P21/c ,1,0,1.32561971204,0.673156167493
2489, CNOXPB , CC(=O)OC(=CN(=O)=O)C1(NN=C(C#N)C1(C)C)C#N , Pbca ,1,0,1.4198044490600001,0.670953193383
2490, KIBFEG , CC1=CC(=NN(=N1)[O])C , P212121 ,0,0,1.30476857223,0.6787679970839999
2491, FIPZIN , O=N(=O)N(CN=[N+]=[N-])CN(CN(CN=[N+]=[N-])N(=O)=O)N(=O)=O , P-1 ,1,1,1.71546257726,0.725451172204
2492, GUYSOI , CCCCCCCCCCCCCCCCCCOC1CCN(C1)c1ccc(cc1)N(=O)=O , P21 ,0,0,1.11394202876,0.662976443231
2493, SEPRUB , CC(=O)NC1=C(N=CN1)C1=NOC(=N1)C , P21/n ,0,0,1.4153597485,0.667619047619
2494, DUNQOT , CCOC(=O)C(=NOC)C(=O)c1ccc(cc1)N(=O)=O , P-1 ,1,1,1.47815771837,0.7184791350190001
2495, KANQAR01 , NC1=NON=C1N=N([O])C1=NON=C1N , P21/c ,1,0,1.7635907873400003,0.754745018575
2496, NIWFAB01 , NC1=NON=C1C1=NON(=C1C1=NON=C1N)[O] , P21/c ,1,0,1.7445207625,0.693521218011
2498, MOQQUF , COC12C=NOCC1C(C)(C)OC2COC(C)=O , P21 ,0,0,1.31108820847,0.684745683838
2499, PUBBEU , CC1=C(OC(=O)c2ccc(cc2)N(=O)=O)C2C3CCCCCC23C1 , P21/n ,0,0,1.22851883839,0.6508632692840001
2500, KEXTIQ , O=C1N(C=Cc2ccccc12)c1ccc(cc1N1OC2OC(Nc3ccc(cc3N(=O)=O)N(=O)=O)C1c1ccccc21)N(=O)=O , C2/c ,1,0,1.5063648178400002,0.6984359258
2501, ZZZPGU01 , O=N(=O)c1ccc(C=Cc2ccccc2)cc1 , Pbca ,1,0,1.3732314986399998,0.7303431283409999
2502, ULAQUT , CC(C)(C)C1CCC(CC1)OC(=O)c1cc(cc(c1)N(=O)=O)N(=O)=O , P21/c ,1,0,1.34075384858,0.692360933094
2503, FIWGEY , CC1(C)N=C(C2C(N12)c1ccc(cc1)N(=O)=O)c1ccccc1 , P-1 ,1,1,1.2628260021200002,0.657441448802
2504, IHOVOS , CN(C)C=Nc1ccc(cc1NC(C)=C1CCOC1=O)N(=O)=O , P21/c ,1,0,1.37795431486,0.7010998383470001
2505, POBRUU , COC(=O)C1=C(NC2CCCCC2)OC(=C1C(=O)OC)c1ccc(cc1)N(=O)=O , P-1 ,1,1,1.41402779494,0.7050184729060001
2507, HEGROA , CC1(N([O])C(C)(c2ccccc2)c2ccccc12)c1ccccc1 , P-1 ,1,1,1.20675872799,0.662795992714
2509, FOWLUZ , CC1(C)C=C(C#C)C(C)(C)N1[O] , P21/c ,1,1,1.1285307957,0.6597695707069999
2511, TEBLIW , CON(N=O)C1OC(COC(C)=O)C(OC(C)=O)C(OC(C)=O)C1OC(C)=O , P212121 ,0,0,1.35869772945,0.657493180546
2513, MUJCEA , CC1C=CC(COC(=O)c2ccc(cc2)N(=O)=O)ON1C(=O)OC(C)(C)C , P-1 ,1,1,1.4222781387099999,0.7227231216269999
2515, MAPPUQ , CC(=O)OC1NC(NC1OC(C)=O)=C(N(=O)=O)N(=O)=O , C2/c ,1,1,1.68194337333,0.7408826638480001
2516, AJIYAT01 , CC1(C)N(=C(c2ccncc2)N(=O)C1(C)C)[O] , C2/c ,1,1,1.26685193649,0.676100628931
2517, SOXZAH , None , P21/n ,0,0,1.41767572336,0.7279237907800001
2518, AWIXEL , CC(C)(C)OC1CN2OC3(CC3)C(CO)C2C1OC(C)(C)C , P21212 ,0,0,1.10728080307,0.630135533198
2520, HIGCEF , O=C(C1CC2(CCCO2)ON1c1ccccc1)c1ccccc1 , P21/n ,0,0,1.2842661716600001,0.6787607879559999
2521, AMNPHA , Nc1ccc(cc1O)N(=O)=O , P21/c ,1,0,1.5748868340399997,0.747349360792
2523, SEZVEZ , CC(C(=O)Nc1ccccc1)C(=O)OCc1ccc(cc1)N(=O)=O , P21/c ,1,0,1.35872702572,0.679028301887
2524, UXAFUW , CC12C(C(C(C(N(=O)=O)C1(O)CCC2=O)c1ccccc1)N(=O)=O)c1ccccc1 , P212121 ,0,0,1.3720652830700002,0.692360500455
2525, TAZHUA , CCN1C=NC(=C1)C1=[N+]([O-])C(C)(C)C(C)(C)N1[O] , P21/c ,1,0,1.2512403515200001,0.667317846115
2526, AGUNUN , CCOC(C)N1N=Cc2c1cccc2N(=O)=O , P21/c ,1,1,1.3688874014899999,0.693264693265
2527, GEXQOR , ON=C1C(=O)C=C(Nc2ccccc2)c2ccccc12 , P21/c ,1,1,1.38151566337,0.693318663249
2528, QESHEC , COc1ccc(cc1)C(NCc1ccccc1)=CC(=O)c1cccc(c1)N(=O)=O , P-1 ,1,1,1.34625746405,0.704334389245
2529, XARBOH , Cc1ccc(cc1)N=Cc1ccc(cc1)C1=N([O])C(C)(C)C(C)(C)N1[O] , P21/n ,0,0,1.2339041343100001,0.683180354267
2530, PMNTBZ01 , Cc1c(C)c(C)c(c(C)c1C)N(=O)=O , P1 ,0,0,1.25466803317,0.759456865402
2531, LACLAC , Cc1c(cc(cc1N(=O)=O)N(=O)=O)C(N)=O , P21/c ,1,0,1.5827421823899999,0.7203420430670001
2532, VEGBEO , CNC(=NC)c1ccc(cc1)N(=O)=O , P21/c ,1,0,1.29404858756,0.606765327696