ID,name,smiles,space_group,inversion_symmetry,beta_packing,density,packing_coefficient
4405, WAFPEY , CCOC(=O)c1c(C)cc2C(=NN(C(=O)c2c1C)N(=O)=O)CON(=O)=O , P21/a ,0,0,1.53449845859,0.6618989118990001
4406, HEKBAA , OC(C1=CNc2ccccc12)c1ccccc1N(=O)=O , P212121 ,0,0,1.3731848002200002,0.64243584188
4407, SUVPIK , O=C(Cc1ccccc1)OC12NC1(C#N)C(c1ccc(cc1)N(=O)=O)C1=C(CCCC1=O)O2 , P-1 ,1,1,1.33996769524,0.654202446006
4408, YILFII , CN(C)C(C#N)=C1c2cc(cc(c2c2c1cc(cc2N(=O)=O)N(=O)=O)N(=O)=O)N(=O)=O , C2/c ,1,0,1.62943127181,0.731630215687
4410, BAQLOU , CC(=O)CC(C(C1OC(COC(C)=O)C(OC(C)=O)C(OC(C)=O)C1OC(C)=O)N(=O)=O)C1=CC=C(C)O1 , P21 ,0,0,1.28281018247,0.6364415425419999
4411, SEKGEV , CC1(C)CC(C)(C)[N+](=C(N1[O])c1ccc(cc1)N(=O)=O)[O-] , P21/n ,0,0,1.32103369345,0.676818379512
4412, VUKPOI , O=N(=O)c1ccccc1C=CC=NCCN=CC=Cc1ccccc1N(=O)=O , P21/n ,0,0,1.42540324165,0.737071168044
4413, CUSXAQ , CC1=NON=C1NC(=O)Cc1ccccc1 , P21/n ,0,0,1.30611429512,0.657161893884
4414, REMKEC , C=CCC1OC(CC(=O)c2cccc(c2)N(=O)=O)c2ccccc12 , C2 ,0,0,1.29534912347,0.668402582292
4416, TIMLEI , CC1(C)CCCC(C)(C)N1OC1C2CCC(C2)C1N1C=C(N=N1)c1ccccc1 , P21/c ,1,0,1.17609592767,0.658803893179
4417, LIXRIT01 , O=C1C(=CNc2ccccc2)C=CC=C1N(=O)=O , Pccn ,1,0,1.4572326310100001,0.7282607160510001
4418, ISNACN10 , ON=CC(=O)Nc1ccccc1 , Pcab ,0,0,1.3889745305599999,0.713757315335
4419, IYIXAQ , OC1CC2(OC(=O)C=C2C=C1)C1CCC2C3C(ON12)C1CC2(OC(=O)C=C32)C2CCCN12 , P212121 ,0,0,1.4213918809000001,0.7028355027779999
4420, SICZEM , CC(=O)C(C)=NOCC1=CC(=O)Oc2cc(C)cc(C)c12 , P-1 ,1,1,1.34926134169,0.7012768607909999
4421, TAZWIC , COC(=O)C1C(COC1=O)C(=C(C)C)c1ccc(cc1)N(=O)=O , P21/n ,0,0,1.3027336179,0.661937653454
4423, POLQEO , COC(=O)C1=CC2=C(C(=O)C1(OC)OC)C(=NO2)c1c(OC)cc(OC)cc1C1OCCCO1 , Pca21 ,0,0,1.4053814007499998,0.693916155419
4424, UDIGUJ , O=NN1CC2CCCC(C2)C1 , P212121 ,0,1,1.3067924489700002,0.7273746898260001
4425, DAVJER , COc1cccc(C=CC(=O)N2N=N([O])c3ccccc23)c1 , P-1 ,1,1,1.4671230200799998,0.731747919144
4426, LEBMEM , CCOC(=O)C=CC1CC2ON1C1(C2C(=O)OCC)C(=O)N(c2ccccc12)C(c1ccccc1)(c1ccccc1)c1ccccc1 , P-1 ,1,0,1.27906197355,0.666835016835
4427, GEQTUR , OC(=O)c1ccc(cc1C(=O)c1ccccc1)N(=O)=O , P21/c ,1,0,1.41785138393,0.676882902694
4428, GUVTAS , O=N(=O)C1=CN=C2OC(COc3ccccc3)CN2C1c1ccccc1 , P21/c ,1,0,1.3790279367700002,0.681295546559
4429, GAMNAM , CC(C)(C)c1cc(c(C=NC2CC(C)(C)N([O])C(C)(C)C2)c(O)c1O)C(C)(C)C , P21/c ,1,0,1.17475745879,0.675820730993
4430, HECLEI , CCN1C=C(C=N1)N(O)C(C)(C)C , P21/n ,0,0,1.11609256441,0.641856742697
4431, KUMXOH , CCOC(=O)c1cc(OCC(C)C)c(cc1OCC(C)C)C(=O)Nc1cc(C)c(Nc2cc(Nc3c(C)cc(NC(=O)c4cc(OCC(C)C)c(cc4OCC(C)C)C(=O)Nc4cc(C)c(Nc5cc(Nc6c(C)cc(N)cc6C)c(cc5N(=O)=O)N(=O)=O)c(C)c4)cc3C)c(cc2N(=O)=O)N(=O)=O)c(C)c1 , P21/n ,0,1,1.06797843952,0.547776726585
4432, AFIYAQ , COc1ccc(cc1)C1C(C(=CN(C=C1OC(=O)C(C)(C)C)c1c(C)cc(O)cc1C)C)c1ccc(cc1)N(=O)=O , P-1 ,1,0,1.25438609143,0.6685998343
4433, HBIURT10 , NC(=O)N(O)C(N)=O , P212121 ,0,0,1.7267099791299998,0.7476765874619999
4434, GAWBOW , CCOc1cc(ccc1O)C=NNc1ccc(cc1)N(=O)=O , P21/c ,1,0,1.39830303445,0.702823955669
4435, IDIBOO , O=C1ON=C(c2ccccc2)C1=Cc1ccc(C=Cc2ccc(cc2)N2c3ccccc3c3ccccc23)cc1 , P21/n ,0,0,1.3262821870100001,0.696953368806
4436, APERIX , COc1ccc2NC(CC(C3=Cc4ccccc4N3)c2c1)c1ccc(cc1)N(=O)=O , P21 ,0,0,1.3231775354100002,0.673734651093
4437, RAPMOL , CC1=NN(c2ccccc2)C2=C1C(CC(=O)N2)c1ccc(cc1)N(=O)=O , P21/c ,1,0,1.37461471411,0.684981684982
4438, OMOSAL , CCOC(=O)C1=C(C)NC(=C(C1c1cccc(c1)N(=O)=O)C(=O)OCC)CN1C=CC=N1 , P21/a ,0,1,1.18524327796,0.573457223001
4439, DOWQIR , CNc1cccc(c1)N(=O)=O , P21/c ,1,1,1.41387481025,0.7100765306119999
4441, NESHOI , O=N(=O)C1=C2NC(=C(c3ccccc3)C3=NC(=CC4=CC=C(N4)C(=C4C=CC1=N4)c1ccccc1)C=C3)C=C2 , P21/c ,1,0,1.35031158885,0.702039800995
4442, VACQIA , OC1CC(O)C[N+]([O-])(C1)Cc1ccccc1 , P212121 ,0,0,1.3046633486299999,0.7036436111609999
4443, NFMLEA , O=N(=O)C1=CC=C(O1)C=CN1CCOCC1 , P1121/n ,0,0,1.44171337622,0.7276186115469999
4444, OYAFIE , CCOC(=O)C1ON(C)C2C1CC(OC(=O)c1ccccc1)C1OC(C)(C)OC21 , P21 ,0,0,1.24247768609,0.628551136364
4445, CIRLEW01 , C=C1CC(N(=O)=O)C2(CCc3ccccc23)C1C#N , P212121 ,0,0,1.327608574,0.69786158441
4447, SANYAJ , CCOC(=O)CC1CC2(C(C1N(=O)=O)c1ccccc1)C(=O)N(C(=O)OC(C)(C)C)c1ccc(OC)cc21 , P61 ,0,0,1.2993415485,0.669381967001
4448, WEKGIF , O=C(Nc1ccccc1NC(=O)c1ccccc1N(=O)=O)c1cccc(n1)C(=O)Nc1ccccc1NC(=O)c1ccccc1N(=O)=O , P21/c ,1,1,1.4778384557799997,0.710769230769
4449, AXOXUG , CC1CCC(C(C1)OC(=O)C(O)C(Cc1ccccc1)N(=O)=O)C(C)(C)c1ccccc1 , P21 ,0,0,1.20431185954,0.663479788653
4452, ASAYID , Oc1c(NC(=O)c2cccc(c2O)N(=O)=O)cccc1N(=O)=O , P21/n ,0,0,1.6826324004700002,0.7532440544910001
4453, IRUXAV , O=C1N(C2CC3C=CC2ON3c2ccccc2)C(=O)c2ccccc12 , C2/c ,1,0,1.4195709324799999,0.71729156779
4454, EZAHAO , CC(C)C(N([O])C(C)(C)CCC(=O)N(C)C)c1ccccc1 , P21/c ,1,0,1.1486705262299999,0.68091954023
4455, MNPYDO30 , Cc1cn([O])ccc1N(=O)=O , P212121 ,0,0,1.5267692970299998,0.726873217226
4456, CODFEI , C1CC2=CC(=NO2)COCc2ccccc2OCCOc2ccccc2CO1 , P21/c ,1,0,1.29253187124,0.682254655722
4458, FEKVOG , Nc1c(c(N)c(c(c2c(c(N)c(c(N)c2N(=O)=O)N(=O)=O)N(=O)=O)c1N(=O)=O)N(=O)=O)N(=O)=O , P21/c ,1,0,1.8187946878299999,0.722465424713
4459, NOETNA01 , O=N(=O)N(CC(N(=O)=O)(N(=O)=O)N(=O)=O)CC(N(=O)=O)(N(=O)=O)N(=O)=O , P1121/a ,0,0,1.95459300007,0.730624483044
4460, KEJHEP , COC(C1COC(C)(C)O1)C1=NOC2C3CC(C12)N(C(=O)OC(C)(C)C)C3=O , P43212 ,0,0,1.27043721844,0.652698784432
4462, EZEFUL , COc1cc(C=Cc2ccc(cc2)N(=O)=O)cc(OC)c1OC , P21/c ,1,0,1.33861098497,0.688836648337
4463, LEBKIN01 , CC(C)(C)N([O])c1ccc(nc1)c1ccccn1 , Pbca ,1,0,1.2278832873899999,0.6902771444499999
4464, HILYEH , CC(=NNc1ccc(cc1N(=O)=O)N(=O)=O)c1ccccc1 , P21/c ,1,1,1.43879553529,0.6960859984119999
4465, NELLUO , CC1NC(=O)CCN(Cc2ccc(cc2)N(=O)=O)C(=O)C2CCCN2C1=O , P21 ,0,0,1.3755550120700002,0.6925774400939999
4466, GAVGIU , Oc1ccccc1N=CC=Cc1ccccc1N(=O)=O , C2/c ,1,0,1.33154010307,0.67259075667
4467, CANJEH , CCCC1=C(CCC)C(=O)c2c(ccc3ccc4OC(Oc5cc(c6ccccc6c5c4c23)N(=O)=O)(c2ccccc2)c2ccccc2)C1=O , Pbcn ,1,0,1.3498494179299998,0.711117530936
4468, MEXLIN , Cc1ccc(cc1)C=CC(=NNc1ccc(cc1N(=O)=O)N(=O)=O)c1ccccc1 , P21/c ,1,1,1.33496090587,0.668143175185
4471, HESYIO , CCCC1(CCC)c2cc(ccc2c2ccc(cc12)N(=O)=O)N1CCCCC1 , P21/c ,1,0,1.2233685568100001,0.676877269426
4472, XODPIQ , CN(C)Cc1cc(CN(C)C)cc(C=NO)c1 , Pbca ,1,0,1.17018655684,0.6790045839200001
4473, ELUREJ01 , Cc1cccc(c1)c1cc(cc(c1)N([O])C(C)(C)C)N([O])C(C)(C)C , P-1 ,1,0,1.15580542469,0.6952699161429999
4474, XEXYII , COC1N(C(OC)N(C(OC)N1N(=O)=O)N(=O)=O)N(=O)=O , P21/c ,1,0,1.61666055086,0.6958773784360001
4475, IMOMEC , CC(C=CCOC(=O)c1cc(cc(c1)N(=O)=O)N(=O)=O)=CC1(C)C=C(C)C=C(C)C1c1ccc(cc1)N(=O)=O , P-1 ,1,1,1.34945664658,0.689765482696
4476, VEMTUC , O=C(Oc1ccc(cc1N(=O)=O)N(=O)=O)Oc1ccc(cc1N(=O)=O)N(=O)=O , P21/c ,1,0,1.77725973808,0.752370577861
4477, POQWUP , O=C(OCC#C)c1ccccc1N(=O)=O , P21/c ,1,0,1.45720671567,0.7204470742929999
4478, NEQKOJ , O=C(OC1CC2c3ccccc3C1c1ccccc21)c1ccc(cc1)N(=O)=O , P21 ,0,0,1.38609629896,0.700634583986
4479, ZUMLIE , CN1C(=O)C(C(CC(=O)c2ccccc2)c2cccc(c2)N(=O)=O)C(=O)N(C)C1=O , P21/c ,1,1,1.4079240805700002,0.695331905117
4480, EBUVUS , COC(=O)C1(CC(=C)C(=C(C1)C=NNc1ccc(cc1N(=O)=O)N(=O)=O)C)C(=O)OC , P-1 ,1,1,1.44155758379,0.701929392447
4482, IHELIS , Oc1cnccc1C1=NC(=NO1)c1ccccc1 , P21/c ,1,0,1.48680210505,0.731990693616
4483, ZURMEG01 , CN1C=C(C=N1)C1=[N+]([O-])C(C)(C)C(C)(C)C1=O , P21/n ,0,0,1.25563076501,0.6777871873469999
4484, BOQHAQ , CC[N+](CC)(CC)CC1COC2(O1)C(=C[C-](C=C2N(=O)=O)N(=O)=O)N(=O)=O , P21/c ,1,0,1.4973741320299998,0.7361909090909999
4485, CUTHIJ , COC(C)(C(C)C=N([O])C(C)(C)C)c1ccccc1 , P-1 ,1,1,1.15153902597,0.685019379845
4486, HOMDAO , O=C(CN1C=CC=CC1=O)c1ccc(cc1)N(=O)=O , P21 ,0,0,1.4635995894100002,0.72053030303
4487, CAGGIB , Cc1cc[n+]([O-])c(c1)N1N=Nc2ccccc12 , P212121 ,0,1,1.37773391743,0.689901010043
4488, RUDWUK , CC1(C)C=C(C(=O)Oc2cccc(OC(=O)C3=CC(C)(C)N([O])C3(C)C)c2)C(C)(C)N1[O] , P21/n ,0,0,1.2600421476700001,0.673570134576
4489, RUJVID , COC(=O)C1=C(N(C(C=Cc2ccccc2)C(C#N)(C1c1ccc(cc1)N(=O)=O)C(=O)C(C)(C)C)c1ccc(C)cc1)C(=O)OC , P21/c ,1,0,1.2721398763200003,0.663602120536
4490, HASFUF , NC1=C(N(CN(=O)=O)N=C1N(=O)=O)N(=O)=O , P21/n ,0,0,1.7950618567200003,0.732004291078
4491, PIXMAL , O=CC1=CC(Cc2ccccc2)C(C(C1c1ccccc1)N(=O)=O)c1ccccc1 , P212121 ,0,0,1.2716783989799998,0.681194657615
4492, YIYDER , COC(=O)CON=C1CC(N(C)C(C1C)c1ccccc1)c1ccccc1 , P21/c ,1,0,1.22087006803,0.662270265193
4493, IMUWIX , ON1N=NC(=N1)N(=O)=O , Cc ,0,0,1.94011299697,0.747860054348
4494, AVOJUR01 , CC(=O)Nc1ccc(N)cc1N(=O)=O , P21/c ,1,0,1.42709511209,0.705983471074
4495, VALPII , O=C(NCCNN(=O)=O)NCCNN(=O)=O , P21/c ,1,0,1.55347094308,0.6648110736999999
4496, TOHWIW , CC1CCC(C)N1N(=O)=O , P41 ,0,0,1.26636287718,0.679492553998
4497, NMYPHD , O=C1OC(=CN(=O)=O)c2ccccc12 , P212121 ,0,0,1.57353276884,0.698428030303
4498, COWZEV , CC(=O)NN(=O)=O , Pnma ,1,0,1.68364480687,0.752814327485
4499, MPNPUR , CN(C(=O)N(C)c1ccc(cc1)N(=O)=O)c1ccc(cc1)N(=O)=O , C2/c ,1,1,1.4507711730000001,0.658397212544
4500, GOMJOI , COC1OC(COCc2ccccc2)C(OCc2ccccc2)C(OCc2ccccc2)C1CN(=O)=O , P212121 ,0,0,1.24961387339,0.660488552835
4501, GOLYAH , CC1CC(C2C3C4CC(C=C4)C3C(=O)C2=C1)N(=O)=O , Pca21 ,0,0,1.3165229350399998,0.686408517832
4502, BAGMEC , O=NN1CCN(CCN(CC1)N=O)N=O , P21/c ,1,0,1.4692418210499998,0.7037932646580001
4503, OPIJIH , COc1nc(nc(n1)C1=NOC(=C1)CO)N(C)C , P-1 ,1,1,1.41984393164,0.6884469696969999
4505, CEZBEP , CCOC(=O)C12NC(=O)N3Cc4c(CN(C(=O)N1)C23C(=O)OCC)c(ccc4OC)N(=O)=O , P21/c ,1,0,1.53430079352,0.7155427631579999
4506, TEVMUF , ON1CCCCCNC(=O)CCC(=O)N(O)CCCCNC(=O)CCC1=O , Pc ,0,0,1.33181047265,0.779938155922
4507, ILAFEG , CN1N=NC(=N1)C1=N([O])C(C)(C)C(C)(C)N1[O] , P21/c ,1,0,1.33992514959,0.673861852433
4508, ZOGLUC , Cc1ccc(c2c1C1C(C3ON(OC23C)C1(N(=O)=O)N(=O)=O)N(=O)=O)N(=O)=O , P21/c ,1,0,1.7954339708700002,0.7596996245309999
4509, VAFCIP , CC1=C(CON(=O)=O)C(=O)c2ccccc2C1=O , P21/c ,1,0,1.4717517995500002,0.705632645299
4510, HAGSEP , CC1=NN(c2ccccc2)C2=C1C(=O)Oc1ccc(cc21)N(=O)=O , P21/m ,0,1,1.4566827196399998,0.6786012446870001
4511, NBZOAO05 , OC(=O)c1ccccc1N(=O)=O , P-1 ,1,1,1.64621187831,0.778866396761
4512, HIYROX , COC1(C)OC2C(COC(OCc3ccccc3)C2OC1(C)OC)OC(=O)c1ccc(cc1)N(=O)=O , P212121 ,0,0,1.3669752590900002,0.6801257648190001
4513, COZQIT , O=C(C=C(NCc1ccccc1)c1ccc(cc1)N(=O)=O)c1ccccc1 , P-1 ,1,1,1.30801064222,0.6809640522879999
4514, RIFXEJ , COC(=O)C1(CCCC1=O)C(CN(=O)=O)c1ccccc1 , P21/c ,1,0,1.3220054017799998,0.676630231246
4515, GACZIU , COC(=O)C1=CC2(N(O1)C(C)CNC2=O)c1ccccc1 , Pbca ,1,0,1.36500155931,0.6886920142730001
4516, MOKFEY , None , C2/m ,1,0,1.4339755971099999,0.822829045027
4517, IPAJUE , CCOC(=O)C1(C)C=C(C)C=C(C)C1c1ccc(cc1)N(=O)=O , P21/c ,1,0,1.2703049179299999,0.682404082404
4519, PEDLER , CC1=NN(C(=C1)C)c1nnc(NN2C=NC(=N2)N(=O)=O)nn1 , P21/c ,1,0,1.55900213304,0.701161971831
4520, KERCIU01 , C(ON1N=Nc2ccccc12)ON1N=Nc2ccccc12 , P21/c ,1,0,1.45109818224,0.683162393162
4521, WUWHIG , O=C1OCC(CC2CC12N(=O)=O)N1C(=O)c2ccccc2C1=O , P-1 ,1,1,1.56093914919,0.733250728229
4522, QOYJOD01 , O=C1NN=C(N1)N(=O)=O , P21/c ,1,0,1.9255960786400002,0.760043610414
4525, ETONUY , CCOC(=O)C1=CN(C=C(C)C1c1ccccc1)c1ccc(cc1)N(=O)=O , P21/n ,0,0,1.27795151812,0.659236682891
4527, MNIMET03 , CC1=NC=C(N1CCO)N(=O)=O , P21/c ,1,0,1.44949686778,0.704778554779
4528, CATNOR , None , P212121 ,0,1,1.11728553668,0.558285814326
4530, ZIMCUW , CCOC(=O)C1C2C3CC(C12)C1C3ON=C1c1ccc(OC)cc1 , P-1 ,1,1,1.33017527941,0.68555571267
4532, LICZUS , CC1(C)N([O])C(=N([O])C1(C)C)c1ccc(cc1)C(O)=O , C2/c ,1,0,1.26327867259,0.654383341471
4533, NUBZIU , CC1=C2CC(OC(C)(C)C2CC1)c1ccc(cc1)N(=O)=O , P21/n ,0,0,1.30283661093,0.712035911543
4534, PAKQOJ , CC(=O)OC1COC(Oc2ccccc2N(=O)=O)C(OC(C)=O)C1OC(C)=O , P21 ,0,0,1.41366403653,0.6861549497849999
4535, UPUXAF , CC1(C)CC(=O)C2=C(C1)OC1CC2c2ccc3cccnc3c2N1Cc1ccc(cc1)N(=O)=O , C2/c ,1,0,1.3245175154,0.6725376196989999
4537, ODOVIM , None , Pnn2 ,0,1,1.11798677751,0.649356995885
4538, BOLPEX , Oc1ccc(c2C(=O)c3c(c(O)ccc3N(=O)=O)C(=O)c12)N(=O)=O , P21/a ,0,0,1.73708733557,0.7540007079819999
4540, PEFHIU , CN1C(=O)C2(CC(C=C2)c2ccc(cc2)N(=O)=O)c2ccccc12 , P212121 ,0,0,1.36428509095,0.6984793828460001
4541, ZOPYUA , CCOC(=O)C1CC(C)(ON2C(C)(C)CCCC2(C)C)C(C)C(C1c1ccccc1)(C(=O)OCC)C(=O)OCC , P21/n ,0,1,1.20050481278,0.675
4542, TEJJIB , Cc1ccc(cc1)C1=NOC(=C1)CC#N , P21/c ,1,0,1.29855069604,0.6977616188600001
4543, KIPCAP , Cc1cccc(C)c1C1=NOCC1 , P212121 ,0,0,1.19116642116,0.667834319527
4544, PUJVUM , COC(=O)c1c(C)nc(C)c(C(=O)OCC(C)C)c1c1ccccc1N=O , P-1 ,1,1,1.25115329907,0.650435612842
4545, YIHHUT , C(CON=Cc1ccccc1)CC1=NN=NN1 , P21/c ,1,1,1.30036671708,0.667511490231
4546, VEBVAA , CC(C)(C)OC1CCN2OC3COC(=O)C3C12 , P212121 ,0,0,1.24914746455,0.6601649280399999
4547, WUMGAO , CC1=[N+]([O-])ON=C1C1=NOC(=N1)c1ccccc1 , P21/n ,0,0,1.5005915431099999,0.71209439528
4548, AZUYOJ , O=C(COC(=O)c1ccc(cc1)N(=O)=O)C1C2CC3C4C2CC1C34 , C2/c ,1,0,1.41088253438,0.7033119658120001
4550, HOYRES , COC(=O)C1C(CC=C(c2ccccc2)C21CC2)c1ccc(cc1)N(=O)=O , P-1 ,1,1,1.35214713211,0.713807966706
4551, TIDJAS , CC1Cc2ccccc2C(CC=CC(=O)O1)OC(=O)c1cc(cc(c1)N(=O)=O)N(=O)=O , P-1 ,1,1,1.44219860035,0.6991279069769999
4552, RERWES , CCCC1CC(C2N(O1)OC(CC2(C(=O)OC)C(=O)OC)c1ccccc1)c1ccc(OC)cc1 , Pbca ,1,0,1.30012693738,0.691721237802
4553, JOGHAO , CC1CCC(OCc2cc(cc(c2)N(=O)=O)N(=O)=O)O1 , P21/n ,0,0,1.4325395295899999,0.6455248190730001
4554, SALWUA , CN1c2ccccc2C(=C1c1ccc(cc1)N(=O)=O)c1ccc(cc1)N(=O)=O , P-1 ,1,1,1.37675527377,0.677113314146
4555, QABDEE , [O]N(CCOCc1ccccc1)=Cc1ccc(cc1)N(=O)=O , P21/n ,0,0,1.3349822036499999,0.682495964487
4556, VIKYUJ , O=N(=O)C1(C2C3CC4C5C3C1C5C(C24)(N(=O)=O)N(=O)=O)N(=O)=O , P21/n ,0,0,1.72870513223,0.732774605963
4557, TEVBUS , COc1ccc(OC)c(C(O)C2OC2(CCC=C)COC(=O)c2ccc(cc2)N(=O)=O)c1CC(C)=C , P-1 ,1,1,1.3240866106,0.694934829236
4560, BOMAIU10 , CN(C)C(OC(=O)c1ccccc1)=NN(C)c1ccc(cc1N(=O)=O)N(=O)=O , P21/c ,1,0,1.3952136597999998,0.6809556605789999
4561, OYOYIM , Oc1c(cc(C=Cc2ccc(cc2)N(=O)=O)cc1c1ccccc1)c1ccccc1 , P21/c ,1,0,1.34587905397,0.712115384615
4562, IMISAY , C[N+]([O-])=NOCN(CN(CN(CON=[N+](C)[O-])N(=O)=O)N(=O)=O)N(=O)=O , P-1 ,1,1,1.62952597511,0.699948735475
4563, COWHUT , CCOC(=O)NN(=O)=O , P21/c ,1,0,1.60246745179,0.7360752688169999
4564, TABTIC , CCN(CC)c1ccc(C=Nc2cccc(c2)N(=O)=O)c(O)c1 , C2/c ,1,0,1.32309107244,0.6920393322220001
4565, BOFDIJ , COC(=O)C1=C(C(=NO1)c1ccccc1)N(=O)=O , Pnma ,1,1,1.4704897232799998,0.666375461076
4566, XIJJAB , CC1(C)C2CC1c1nc(ccc1C2)c1ccc2CC3CC(c2[n+]1[O-])C3(C)C , P212121 ,0,0,1.27099785237,0.6826959027889999
4567, YAGBAM , COc1ccc(C=CC2CCC3CC(=[N+]([O-])C23)c2ccccc2)cc1 , P21/n ,0,0,1.2642915704200002,0.687070506791
4568, ACALEV , Cc1cccc(C)c1NC(=O)c1ccc(cc1)N(=O)=O , P212121 ,0,0,1.31109225349,0.671073355451
4569, IJUREK , CCOC(=O)C1C(C)ON2c3ccccc3C(=O)C12c1ccccc1 , C2/c ,1,0,1.29420943546,0.675074265166
4571, TIXQUM , Cc1ccc(cc1N)N(=O)=O , P21/n ,0,0,1.3732583886200003,0.697388438134
4573, JEGVAV , CON1C2C3CC(CC3C1=O)C2N1C=C(N=N1)c1ccccc1 , P-1 ,1,1,1.3833688748700002,0.711647134676
4574, POYYIM , COC(=O)c1cccc(NC(=O)c2cccc(NC(=O)c3cccc(NC(=O)c4cccc(NC(=O)c5cccc(NC(=O)c6cccc(c6OC)N(=O)=O)c5OC)c4OC)c3OC)c2OC)c1OC , P-1 ,1,1,1.43918738873,0.7022725878049999
4575, AWIWUZ01 , NC(=O)NOCc1ccccc1 , P21/c ,1,0,1.3004964482799999,0.660455486542
4576, LUQPEU , CC(C)(C)OC(=O)C=Cc1ccc(cc1)N(=O)=O , P-1 ,1,1,1.34684653454,0.706005209101
4577, OJIRUV , CC1(CC(=O)OC1c1ccc(cc1)N(=O)=O)c1ccccc1 , P21/n ,0,0,1.36481833331,0.696507125626
4578, BAFNUT , O=C(OC1=C(CCCC1)C(=O)c1ccc(cc1)N(=O)=O)c1ccc(cc1)N(=O)=O , P212121 ,0,0,1.46559691244,0.728520408163
4579, RERXES03 , CC1(C)N=C(N([O])C1(C)C)c1ccc2ccc3cccc4ccc1c2c34 , P21/n ,0,0,1.2912521166,0.7097107438019999
4580, EWUCEE , COc1cc(OC)c(cc1OC)N(=O)=O , P42 ,0,0,1.4638579678799999,0.720749879827
4581, MNOMAN10 , CNc1ccc(C)c(c1)N(=O)=O , P21/c ,1,1,1.3221259934,0.6415217719349999
4583, OMEKAT , Cc1ccc(cc1)C1OC2(C)ON=C(C)C12C , P21/c ,1,0,1.25353311398,0.689421586166
4585, NURWEC , CC1OCC2OC(C)OC(C2O1)C1=NOC2C=COC12 , P212121 ,0,0,1.38956139951,0.6748693834899999
4586, LUTXAB , CNC1=C(C=C2C(Oc3ccccc3C2=O)N1C)N(=O)=O , Fdd2 ,0,0,1.49578008091,0.7197153351700001
4587, XEWHUD , COC(=O)C1(COCc2ccccc2)N(Cc2ccc(OC)cc2)C(=O)C2CN(C)OC12C , P-1 ,1,1,1.24609431727,0.64996698217
4588, RIRMAH01 , Nc1ccc(cc1N)N(=O)=O , P212121 ,0,0,1.5300450268399999,0.743194192377
4589, GIHNUJ , CON=C1OCc2cccc(OC)c12 , P21/c ,1,1,1.3468008196399999,0.69335962757
4590, VABZON , COC1OCCC2ON3C(=NOC3(C12)c1ccccc1)c1ccccc1 , Pbca ,1,0,1.3180720020299999,0.6968761690979999
4594, IGAFED , CC1CCC(C(C1)OC(=O)C([N-]c1ccc(cc1)[N+](O)=O)c1ccc(C)cc1)C(C)(C)c1ccccc1 , P212121 ,0,0,1.19983201937,0.653342229429
4595, PIKPAD , COc1cccc(c1)C1Oc2ccccc2C(=C1N(=O)=O)Nc1ccccc1 , P-1 ,1,1,1.3282357818000001,0.665754483612
4596, FEBRUB , OC(=O)CN1N=C(NC1=NN(=O)=O)N=[N+]=[N-] , P21/c ,1,0,1.76681465375,0.731407302375
4597, NEKPAU , CC(=NO)C1(C)NCC(C)(C)CN1 , P21/c ,1,0,1.1243275645100002,0.645174866949
4599, NIRSAJ , CC1(C)OC2OC3COC(=Cc4ccccc4N(=O)=O)C3(O)C2O1 , P21 ,0,0,1.43018274081,0.722216748768
4600, UTOHUH , O=Cc1cc(ccc1N1CCOCC1)N(=O)=O , P21/n ,0,0,1.42143057114,0.708979137156
4601, SOVJIY , CON=CC=CC1=CNc2ccccc12 , Pca21 ,0,0,1.28566120484,0.696858499525
4602, FINGOZ , CC(=O)C(=Cc1ccccc1N(=O)=O)C(=O)OC(C)(C)C , Pna21 ,0,0,1.30092711053,0.684813664596
4604, FINBOV , O=N(=O)C(CC#CCC(N(=O)=O)(N(=O)=O)N(=O)=O)(N(=O)=O)N(=O)=O , Pbca ,1,0,1.81831000128,0.734057170899
4608, PAVMIK , CCOc1cccc2C3N(OC(c4ccccc4)C3(COc12)C#N)c1ccccc1 , P21/c ,1,0,1.2850283813799999,0.67004551999
4609, POBKOI , CC(=O)N(C1CC(C)(C)N([O])C(C)(C)C1)C1CC(C)(C)N([O])C(C)(C)C1 , Pbca ,1,0,1.13714503574,0.651632508014
4610, KASBEL , O=N(=O)N(CCCCN(C#N)N(=O)=O)C#N , P21/n ,0,0,1.52682133736,0.7226965058849999
4611, JOKSOS , CCN1C=C(C=N1)C1=[N+]([O-])c2ccccc2N1[O] , P1 ,0,1,1.4022941786200003,0.700330536486
4612, BAPYEY , COC(=O)C1C(C(N(O)C1C(=O)OC)c1ccccc1)C(=O)OC , P212121 ,0,0,1.4097860279499999,0.710745240675
4613, TUJRIB , O=C1CCC(=O)N1OC(=O)c1ccc2OCOc2c1 , P21/n ,0,0,1.44094753665,0.665758087633
4614, ZODZUN , ON1CC2OC3(CCCC3)OC2C1c1ccccc1 , P21/c ,1,0,1.2388219676999999,0.680779613433
4616, YAPDEA01 , COC1C(C)OC2Oc3cc(C=NO)nc(c4ccccn4)c3OC2(OC)C1O , P212121 ,0,0,1.47299780825,0.7219700854699999
4617, HEQJUI , CC1=C2C=CCCC2=C(O1)c1ccc(cc1)N(=O)=O , P-1 ,1,1,1.37236238392,0.7082702020199999
4618, GIXJUU , O=N(=O)c1ccc(cc1)N=Nc1ccc(cc1)N(Cc1ccccn1)Cc1ccccn1 , P21/c ,1,0,1.34881627512,0.685359744907
4619, TIHBES , CN1N(c2ccccc2)C(=O)C(=C1C)N=CC1=CC=C(O1)N(=O)=O , P21/n ,0,1,1.40547644233,0.694424603175
4620, GOCTUP , Oc1ccccc1N=Cc1ccc(cc1)N(=O)=O , P21/c ,1,0,1.4141566328100001,0.703689986283
4621, CUGHAO , CCc1ccc(cc1)C(=O)OC(CN1N=Nc2ccccc12)C(=O)c1ccc(cc1)N(=O)=O , P21/c ,1,0,1.47494034072,0.702308518549
4622, MAPNAU , [O-]N(Cc1ccccc1)C1=[NH+]CCN1 , Pbca ,1,0,1.3169942685299998,0.7011259949519999
4626, DOKVUV , CCOC(=O)c1ccc(Nc2ccccc2)c(c1)N(=O)=O , P21/n ,0,0,1.35848946178,0.6819645732690001
4629, GODDUZ , COC(OC)C(C(O)C(Cc1ccccc1)NC(=O)OC(C)(C)C)N(=O)=O , P212121 ,0,0,1.235378144,0.64737144169
4630, AKENIO , COC(=O)c1ccc(NC2=CC(=NN2C(C)=O)C(C)(C)C)c(c1)N(=O)=O , P21/c ,1,0,1.3888477203799998,0.696759134572
4631, CERNUJ , COC(=O)C1=C(C)NC(=C(C1c1cccc(c1)N(=O)=O)C(=O)OCCOC(C)=O)C , P-1 ,1,1,1.38560807641,0.6923596733380001
4633, WACQEY , Oc1c2ccccc2c(cc1N(=O)=O)N(=O)=O , P21/n ,0,1,1.64701077011,0.7409460458239999
4634, ROMJIN , COC(=O)c1cc(cc(c1)N(=O)=O)C(O)=O , P21/c ,1,0,1.5800390982499999,0.724061047349
4635, HUBMAS , Oc1c2Cc3cccc(Cc4cc(CC5CC(=NO5)c5ccc(cc5)C#N)cc(Cc5cccc(Cc1ccc2)c5O)c4O)c3O , Pbca ,1,0,1.30139077786,0.668450491308
4636, WITJIS , None , P21/c ,1,0,1.29236756892,0.668626016921
4637, NUKPIT , CCOC(=O)C1CC2(CC(CC(C1)(C2c1ccccc1)N(=O)=O)C(=O)OCC)N(=O)=O , I41/a ,1,0,1.34345344011,0.6707432454819999
4638, OFIXAF , NN(c1ccccc1)c1ccccc1N(=O)=O , Pna21 ,0,0,1.3722560713299998,0.702690140845