ID,name,smiles,space_group,inversion_symmetry,beta_packing,density,packing_coefficient
6322, DETYUW , CC12CC3OC3C3(C)OC13C(C)(C2)OC(=O)c1ccc(cc1)N(=O)=O , P21/n ,0,0,1.36949871867,0.689920104051
6323, VAGWUW , O=N(=O)c1ccc(cc1)C=C(C=C(C#Cc1ccccc1)c1ccccc1)C#Cc1ccccc1 , P21/c ,1,0,1.25260423646,0.6747238014210001
6325, UJUVIE , COC(=O)c1ccccc1C1=NC(=NO1)c1ccc(C)cc1 , C2/c ,1,0,1.3585106439899999,0.695213151999
6326, VUMWOP , CC(OCc1ccccc1)C(OC(=O)c1cc(cc(c1)N(=O)=O)N(=O)=O)C(C)C=C , P21/c ,1,0,1.3291198634799999,0.6806696428569999
6327, PARKUR , CN(Cc1ccccc1)C#CC#CC#Cc1ccc(cc1)N(=O)=O , P-1 ,1,1,1.32331051935,0.7144943202290001
6329, PAPBUG , CC1(NC(=O)c2cc(cc(c2N1)N(=O)=O)N(=O)=O)c1cccc(c1)N(=O)=O , P-1 ,1,1,1.51626016706,0.66544577781
6330, DOLTAZ , None , P21/c ,1,0,1.7216792672999999,0.764247311828
6331, OXALIN01 , CON1c2ccccc2C2(C=C(OC)C(=O)N3C(=CC4=CN=CN4)C(=O)NC123)C(C)(C)C=C , P212121 ,0,0,1.3294343102700001,0.674444234524
6332, CIWQIK , NC1=NON=C1C1=NON=C1N , P-1 ,1,1,1.78878820662,0.766463065471
6334, IGAFOM01 , CC1(C)CC(C)(c2ccc(cc2)N(=O)=O)c2ccccc12 , P21/c ,1,1,1.26296035941,0.6841235632179999
6335, CODCAA , CC(C)(C)OC1CCN2OC3C4COC(O4)C(=O)C3C12 , P212121 ,0,0,1.28620288244,0.666450234018
6336, HEVYEM , CCOC(=O)C(=CNc1cccc(c1)N(=O)=O)C(=O)c1ccccc1 , P-1 ,1,1,1.3563191002200001,0.6871670077240001
6338, BOQQUV , O=CC(=CNCc1ccccc1)c1ccc(cc1)N(=O)=O , P21/n ,0,1,1.38389129558,0.714528138528
6339, KEZYEW , None , Pnma ,1,0,1.64135332347,0.744514106583
6340, QENGEY , CC(C)(C)OC(=O)NC(C(Oc1ccccc1)C(=O)N1CCc2cccnc12)c1ccccc1N(=O)=O , P212121 ,0,0,1.27715821859,0.6702985198929999
6341, FOKWUY , Cc1ccc(cc1)C(=O)C1(N(=O)=O)C(C)(C)c2ccccc2C1(C)C , P21 ,0,0,1.2371234288600002,0.664084022039
6342, GIMBUB , CC(C)(C)c1cc(C#N)c(C#N)c(c1)N(=O)=O , P21/c ,1,0,1.32786897895,0.747046438964
6343, HIXBIB , Cc1ccc(NC(c2ccc(C)cc2)=C(C#N)N(=O)=O)cc1 , Cc ,0,0,1.3284013293899999,0.702929595715
6344, SUZRAH , O=N(=O)C=C1NCCN1CC1CCOCO1 , P21/n ,0,0,1.42561009542,0.7056175017640001
6345, ZILMUC , CC1CCC2C(C)C(OC(CC(O)=O)c3ccc(cc3)N(=O)=O)OC3OC4(C)CCC1C23OO4 , C2 ,0,0,1.3051582256,0.647076154336
6346, MAZWEQ , O=N(=O)c1ccc(cc1)C=NCCCCCCN=Cc1ccc(cc1)N(=O)=O , P21/c ,1,0,1.37313508054,0.729613330485
6347, NERGOJ , CCOC(=O)C1=NN(c2ccccc2)C(=C1C=O)c1ccc(cc1)N(=O)=O , C2/c ,1,0,1.39325278574,0.681922196796
6348, VABNUH , COCC1CCCN1C(=O)C1(C)C(=CCCC1=NNc1ccc(cc1N(=O)=O)N(=O)=O)C , P212121 ,0,0,1.3444428408200002,0.67815
6349, JIDBED , O=N(=O)C1(CCCC1)C1(CCCC1)N(=O)=O , C2/c ,1,0,1.6702410046399998,0.781794425087
6350, SEZWIE , COc1ccc2C=C(C(=O)ON3C(=O)CCC3=O)C(=O)Oc2c1 , P21/c ,1,0,1.5113170943599998,0.7071665875650001
6351, ENPROP , CCOC(=O)C(C(ON(=O)=O)c1ccc(cc1)N(=O)=O)N(=O)=O , P21/n ,0,1,1.54467557254,0.7024832229440001
6352, DUZFEK , CCOC(=O)N(CC)N1C(=O)N(N=C1c1ccc(cc1)N(=O)=O)c1ccccc1 , P21/n ,0,0,1.3785941235199999,0.678439861139
6353, YOMYOO , CC1(C)N([O])C(=[N+]([O-])C1(C)C)c1cccc(O)c1 , C2/c ,1,0,1.28249625527,0.669102854817
6356, ZIXZIR , COc1ccc(cc1OC)C(=O)OC(C)CN1C(=NC=C1N(=O)=O)C , P21/c ,1,0,1.36426866601,0.682688786347
6357, QAWZUK , CC1(C)OC2OC3COC4C5OC(C)(C)OC5OC4C4=NOC(COC3C2O1)C4 , P212121 ,0,0,1.38843076616,0.673852388746
6359, RAGFOW , COC(=O)C1(C)CCCC2(C)C1CCC13CC4(OC5CCC(=NO)C1C5C4CC23)C(C)C , P21 ,0,0,1.24020059109,0.6913505998
6360, AZFOXM , ON=CN=NC=NO , P21/c ,1,1,1.59332591598,0.7301290760870001
6361, GUHDOC , COc1cc(CC=C)cc(N=Nc2ccc(cc2)N(=O)=O)c1OC(=O)c1ccccc1 , P21/n ,0,0,1.28596818409,0.647276004419
6363, JIGKAL , Cc1cc(C)c(c(C)c1)C1=NOC2(OC(=NN3C(=NOC23c2ccccc2)c2c(C)cc(C)cc2C)c2ccc(cc2)N(=O)=O)O1 , P21/c ,1,1,1.30291003514,0.605277539622
6364, ABULIT06 , COc1cccc(C=NO)c1O , Pbca ,1,0,1.7804437098199999,0.871362997658
6366, HENCEJ , CCCCNc1cc(cc(C)[n+]1[O-])N(=O)=O , P-1 ,1,1,1.3596331099099999,0.7135549872120001
6367, CATJIQ , O=N(=O)N1CC(CN(CC(C1)(N(=O)=O)N(=O)=O)N(=O)=O)(N(=O)=O)N(=O)=O , Pbca ,1,0,1.8644546323700002,0.7491790373370001
6368, CENMUD , CCC(=O)c1c(OC)c(C)c(OC)c2c(OC)c(cc(OC)c12)N(=O)=O , P-1 ,1,1,1.3267007599299998,0.681048469284
6369, JODLUK , O=N(=O)c1ccc(NN=C2CCCCCCCCCCCC2)c(c1)N(=O)=O , P-1 ,1,1,1.31778927515,0.7056188667300001
6370, HUYJES , O=N(=O)c1cc2N=C3C=CC=CN3c2cc1N(=O)=O , P21/n ,0,0,1.62308958442,0.728163099234
6371, IDODEL , CC(=O)N1C(=O)C(CC2=NC(=NO2)c2ccc(C)cc2)(CC2=NC(=NO2)c2ccc(C)cc2)c2ccccc12 , C2 ,0,0,1.29815572752,0.659092613423
6372, RIZGUD , CC(=NNc1ccc(cc1N(=O)=O)N(=O)=O)C1=CC=CO1 , P21/c ,1,1,1.53150683074,0.710507122507
6374, MIJJAR , O1C=NC(=N1)C1=NOC=N1 , Cmca ,1,1,1.67055023717,0.726876016086
6375, OPMHOC , O=C1ON2C3Cc4ccccc4N2C1(C3)c1ccccc1 , Pbca ,1,0,1.36976347009,0.701738740157
6376, XOSREC , COc1ccc(cc1)C12CON(C)C1c1ccccc1OC2 , P21/c ,1,0,1.30238533848,0.6894286497490001
6377, LANMAP , COC(=O)Cc1ccccc1OCC1=NC(=NO1)c1ccccc1C , P21/c ,1,0,1.30823288692,0.6696942765730001
6378, SABYOL , CCOC(=O)CC1Nc2cc(ccc2NC=C1C(=O)OCC)N(=O)=O , Pbca ,1,0,1.34810743418,0.6638915962749999
6379, MUDZER , NC1=[N+]([O-])CC(O)CC1 , P212121 ,0,0,1.48106502932,0.7595687331540001
6380, BOQHEU , CC1=CC(=C(Oc2ncc(cc2N(=O)=O)N(=O)=O)C(=O)C(=C1)C)C , P21/c ,1,0,1.4051384755899998,0.674085595777
6381, NAYNUX , O=N(=O)N1C2OC3C4OC1C(N4N(=O)=O)N(C2N3N(=O)=O)N(=O)=O , P-1 ,1,1,1.96543820887,0.744033744034
6382, XEKMAC , CC(C)=C(OC(=O)c1ccc(cc1)N(=O)=O)C#CC(OC(=O)c1ccc(cc1)N(=O)=O)=C(C)C , P-1 ,1,1,1.43078744534,0.713925353925
6383, PILWUD , CC(C)(C)N(O)c1ccc(cc1)N1C=NC=N1 , C2/c ,1,0,1.26970350904,0.6828539454979999
6384, ABAWAD , CC(C)(C)CC(C)(C)c1ccc(O)c(C=NO)c1 , P21/a ,0,0,1.1698423150900001,0.683755650434
6385, IXAHIY , ON(CCc1ccccn1)CCc1ccccn1 , P212121 ,0,0,1.2298864422600002,0.6751023751019999
6387, XEKDUP , Cc1ccc(cc1)C1=C2NC(=C(c3ccc(cc3)N(=O)=O)C3=NC(=C(c4ccc(C)cc4)c4cccc5c4Oc4c5cccc14)C=C3)C=C2 , P-1 ,1,1,1.3668762750999999,0.699867724868
6388, TOHYUK , O=N(=O)NC12C3C4C1C1C2C3C41NN(=O)=O , P21/a ,0,1,1.69849351245,0.7057925277410001
6390, VAVPEP , CC1=CC2(C)C(C(C2c2ccc(cc2)N(=O)=O)C(=O)NC(CO)c2ccccc2)C(=C1)C , P212121 ,0,0,1.1781819740700001,0.625613506969
6391, DAKFIE , OC(C1C2C(CON2Cc2ccccc2)CN1Cc1ccccc1)c1ccccc1 , I2 ,0,0,1.20741270232,0.65397657534
6392, HIDQIW , CCOC(=O)C1=COC(=C1c1ccc(cc1)N(=O)=O)c1ccccc1 , P21/n ,0,0,1.3549565974200002,0.6796747967479999
6393, DEFLEF , CC(=O)N1C2C(N(C(C)=O)C(=O)N2N(=O)=O)N(C1=O)N(=O)=O , P212121 ,0,0,1.71276364239,0.7067870466159999
6394, MUWZUB , CC1(C)CC(N2OCC3CCCC123)C(=NO)c1ccccc1 , P-1 ,1,1,1.22957293749,0.667696550761
6396, GEFGOP , O=N(=O)c1ccc(cc1)C1CC2CC(CO2)O1 , P212121 ,0,0,1.4039415740399999,0.695889450056
6397, JUKDOI , [O]N1=C2C3CCCC3CC2C2CCCC(=O)C2(O1)N1CCOCC1 , P-1 ,1,1,1.3257140412000001,0.690122044241
6398, DUPHOL , CC(CCC(O)=O)(N(=O)=O)N(=O)=O , P21/n ,0,0,1.5897326555700002,0.729289795918
6399, RAQRIL , O=N(=O)C1=CC2=[N+]([O-])ON=C2C2=[N+]([O-])ON=C12 , Pna21 ,0,0,1.8397190991900003,0.7166486291490001
6401, DAKDEB , CC1=[N+]([O-])ON=C1C1=NO[N+](=C1N(=O)=O)[O-] , P212121 ,0,0,1.75993820219,0.775
6402, HOCNAP , CCOC(=O)C(=C)CC(C(=O)OCC)=C(OC(=O)c1ccc(cc1)N(=O)=O)c1ccc(cc1)N(=O)=O , P21/n ,0,0,1.4117699829700001,0.6935957057019999
6403, ISAJER , O=C(N=[N+]=[N-])c1ccc(cc1)N(=O)=O , C2/c ,1,0,1.5825775141799998,0.720389020807
6404, TAJJUJ , CCC(CC)(c1ccccc1)C(CC)(CC)c1ccc(cc1)N(=O)=O , P21/n ,0,0,1.21100114675,0.6847456502629999
6405, BESGUB , COC(=O)CC1C2CCC(CC2=O)C1N(=O)=O , P21/c ,1,0,1.3829498259,0.6865532328630001
6406, SAVTOA , CC1=NN(c2ccccc2)c2nc(c3ccccc3O)c(cc12)N(=O)=O , P21/n ,0,0,1.4032100387200002,0.6952629366349999
6408, SANWEL , CCN1c2ccccc2c2cc(ccc12)N1C(=C(C#N)C(c2cccc(c2)N(=O)=O)C(=C1C(=O)OC)C(=O)OC)N , P21/n ,0,0,1.39501575036,0.699019607843
6409, FEXMED , CC1(C)CC(C=C2C(C)(C)C3CCC12C3)=NO , P21/n ,0,1,1.0763598029299999,0.619874292245
6412, DAGKUS , CCC(C)(C=NNc1ccc(cc1N(=O)=O)N(=O)=O)C(CN(=O)=O)c1ccccc1 , P-1 ,1,1,1.3683045884099998,0.677608859604
6414, BESWIH , CC1(C)C2CCC(Oc3ccc(cc3)N(=O)=O)C1C2 , P212121 ,0,0,1.2515841990799998,0.679888758782
6415, ZZZLFW01 , O=N(=O)c1cc2cccc(c2c(c1)N(=O)=O)N(=O)=O , P21/n ,0,0,1.67700025848,0.7914539610510001
6416, MIZLOY , Oc1ccc(cc1C=NCC1=CC=CO1)N(=O)=O , P-1 ,1,0,1.4802486143,0.756775726163
6417, SELXIS , N#CC1ON2CCCCC32CCCC13 , Pca21 ,0,0,1.25425141186,0.698681271609
6418, EVAWON , Cc1ccc(cc1)[N+]1=NOC(=C1C1=NNC(C1)c1ccccc1)[O-] , Pna21 ,0,0,1.34986421764,0.635777197058
6419, DAHBAP , CN(C)C(=O)C1=CC=CC(=O)N1O , P21/n ,0,0,1.40444065141,0.709787234043
6420, NEYXEX , [O-][N+]1=C(COC2COC3C(COC23)OCC2=[N+]([O-])ON=C2c2ccccc2)C(=NO1)c1ccccc1 , P21 ,0,1,1.4113458615,0.675815153648
6423, KIGSEZ , CC1=NN(C(=C1)C)c1ccccc1N(=O)=O , P21/n ,0,0,1.36702437977,0.7009406231630001
6424, OZERIW , CCOC(=O)C1=C(C)NC(=O)CC1c1cccc(c1)N(=O)=O , P21/c ,1,0,1.3626971637399998,0.692934202837
6425, EHUVOU , CC(C)(O)C(=O)CCC(C#N)(c1ccccc1)c1cccc[n+]1[O-] , P21 ,0,0,1.28657666341,0.690986011234
6426, CUNTOU , CC(=O)C(C)=NNc1ccccc1N(=O)=O , Pmnb ,0,1,1.36385810894,0.658803180279
6428, BAXVEB , [O-][N+]1=C2CCCCC2=NO1 , Pbca ,1,0,1.44763375865,0.723982445988
6430, GEKKOY , O=N(=O)C1=CC2=NOC3(CCCCC3)[N+](=C2C=C1)[O-] , P-1 ,1,1,1.48627533021,0.720510930975
6431, CEWLOI , COC1(OC)C2CC(=O)CC1C(=C(NCc1ccccc1)N2)N(=O)=O , P21/c ,1,0,1.28325413855,0.6434892594389999
6432, BIDJIH , CN(N=O)C(N)=O , P21/n ,0,0,1.48879673316,0.6973507548219999
6434, BILFAG , CCC1(CC)N([O])C(CC)(CC)c2cc3N(N=C([N]c3cc12)C(C)(C)C)c1ccccc1 , P21/n ,0,0,1.14195415848,0.642039331897
6435, FEPDOT , CC1(C)C(CC2C(=O)C(=C)C(C)(C)N([O])C2(C)C)C(=O)C(=C)C(C)(C)N1[O] , Iba2 ,0,0,1.18166114333,0.6723966283930001
6436, IROZIY , COCCOC(=O)C1=C(N)OC2=C(C1c1ccccc1N(=O)=O)C(=O)CCC2 , P21/n ,0,0,1.39734783117,0.6868467116779999
6437, YAXGUZ , COC(=O)C=CC1=[N+]([O-])N=C(c2ccccc2)C(=N1)c1ccccc1 , P21/n ,0,0,1.3464281848500002,0.685429016568
6438, QOCNIF , O=N(=O)c1ccc(CN2CCN(CCN(CCN(CC2)Cc2ccc(cc2)N(=O)=O)Cc2ccc(cc2)N(=O)=O)Cc2ccc(cc2)N(=O)=O)cc1 , P21/n ,0,0,1.35628840875,0.687689684569
6440, EXADIQ , O=N(=O)c1ccc(cc1)C12OCCN1CCO2 , P21/c ,1,0,1.4233311326499998,0.6912106135989999
6441, GELHUD , O=C(NCCON(=O)=O)c1ccccc1NC(=O)c1ccccc1 , P-1 ,1,1,1.43202936867,0.702150537634
6442, YIFYAQ , CC1(C)OCC(O1)C1C2OC(C)(C)OC2C2CC(COC(=O)c3ccccc3)ON12 , P212121 ,0,0,1.28806377065,0.670012501976
6443, ZAYHAL , O=N(=O)OCC(CON(=O)=O)(CON(=O)=O)N(CC(CN(N(=O)=O)C(CON(=O)=O)(CON(=O)=O)CON(=O)=O)ON(=O)=O)N(=O)=O , C2/c ,1,0,1.83525036303,0.740426568794
6444, LACBEW , NC1=NOC(=N1)C1CN2CCC1CC2 , P-1 ,1,1,1.33284259196,0.691012575243
6445, BAQGIL , Cc1cccc(c1)C1=Cc2ccccc2C(CN(=O)=O)C2=C1Nc1c(C)cccc21 , P212121 ,0,0,1.31475926733,0.7036382764899999
6446, DIJPAO , CC1C(C)(CCC1(C)C#N)OC(=O)c1ccc(cc1)N(=O)=O , P21/c ,1,1,1.27036437101,0.661758165736
6447, XIJWEU , CC1(C)N=C(N(O)C1(C)C)C1=[N+]([O-])C(C)(C)C(C)(C)[N+](=C1)[O-] , C2/c ,1,0,1.26941404383,0.687930836265
6448, EVEBOX , CN1OC(c2ccc(C)cc2)C2(COc3ccccc3C12)C#N , P21/c ,1,1,1.27210211911,0.67053301787
6449, BIDKAA , CN(N=O)C(=O)c1ccc(cc1)N(=O)=O , P-1 ,1,1,1.4763483438299998,0.68538549366
6450, FIBLIL , O=C(N1CCCCO1)c1ccc(cc1)N(=O)=O , P21/n ,0,0,1.42801413338,0.7137729735770001
6451, WEHKAW , CCOC(=O)C1=NNC(=C1)C1=N([O])C(C)(C)C(C)(C)N1=O , P21/c ,1,0,1.32152897185,0.673954073608
6452, YERBEC , CC1=NN(c2ccc(cc2)N(=O)=O)C2=C1N=C(CC(N2)c1ccccc1)c1ccccc1 , C2/c ,1,0,1.27608451184,0.652335741314
6453, PUVPED , CC(=NO)C(=O)NNC(=O)c1ccncc1 , Cc ,0,0,1.34716334931,0.65223122428
6454, QOYGUH , CC(=NNc1ccccc1N(=O)=O)c1ccccc1O , Pbca ,1,0,1.4482733288,0.728907668232
6457, OKUHIM , CC1(C)N=C(N([O])C1(C)C)C(C)(C)C1=NC(C)(C)C(C)(C)N1[O] , Pbcn ,1,0,1.15980721001,0.662420274408
6458, TAHTUU , CCOC(=O)C1(NC(c2ccc(cc2)N(=O)=O)C2(C1c1ccccc1)C(=NN(C2=O)c1ccccc1)C)C(=O)OCC , Pbca ,1,0,1.27875176559,0.6450589254029999
6459, LECLEL , CC1=C(c2ccccc2)C(=C(N1)C(=O)NNC(=O)Nc1ccc(cc1)N(=O)=O)c1ccccc1 , P21/c ,1,0,1.37271430276,0.692148153821
6460, ADOHAE , CC(C)(C)NC(=O)C1CCCN1C(=O)c1ccccc1NC(=O)c1ccccc1N(=O)=O , P212121 ,0,0,1.2946474986299998,0.672211508117
6461, VAKROR , CCC1CC2(CC)OCC(O)(CC)C2C1COC(=O)c1ccc(cc1)N(=O)=O , P21/n ,0,0,1.21590884852,0.646027146561
6462, BAPYIC , CCOC1OC(=C(CC1OC(C)=O)N(=O)=O)C , P21/c ,1,0,1.39873107678,0.701215686275
6463, PUTNUP , CN1c2ccccc2c2c1cc1C(=O)N(c3ccc(cc3)N(=O)=O)C(=O)c1c2c1ccccc1 , P21/c ,1,1,1.3675081021000002,0.671511712498
6464, GLOXIM , ON=CC=NO , P21/c ,1,0,1.56487298364,0.7834782608699999
6465, ZUHRID , OC1CCN(CC1)c1ccc(cc1)N(=O)=O , P21/n ,0,0,1.40327801063,0.727200720072
6466, SAJYAD , Oc1ccc(nc1)N=Nc1cccc(c1)N(=O)=O , Pna21 ,0,0,1.47070630819,0.694277108434
6467, QIRROA , O=C(CON=C(C#N)C(=O)Nc1ccccc1)c1ccccc1 , P21/n ,0,0,1.39359150398,0.70992534036
6468, DAYWIK , O=N(=O)c1ccc(NN=Cc2ccccc2OCCOc2ccccc2N(=O)=O)c(c1)N(=O)=O , P-1 ,1,0,1.47263830264,0.7011164917939999
6469, CUKCAM12 , OC(=O)c1cc(cc(c1)N(=O)=O)N(=O)=O , P21/c ,1,0,1.6972442047799998,0.7285
6470, RAQSAE , CCOC1C(C(C)=O)C(=O)CC2C3=[N+]([O-])ON=C3C3=[N+]([O-])ON=C3C12N(=O)=O , P21/a ,0,1,1.58066116806,0.6995836586
6471, CEXYAG , CON(C)C(=O)C1=NNc2ccccc12 , P212121 ,0,0,1.4035766969799999,0.7124774251809999
6472, JETSEJ , COc1cnnc(OC)c1N(=O)=O , C2/c ,1,0,1.54023028681,0.715694202792
6473, PIGLOI , Nc1c(cc(c(N2C=NC(=C2N(=O)=O)N(=O)=O)c1N(=O)=O)N(=O)=O)N(=O)=O , P212121 ,0,0,1.7602279584,0.709595192641
6474, UCAXED , CC1(O)CC2COCC(Cc3ccccc3)N2CC1N(=O)=O , P21 ,0,0,1.33330285595,0.702417986425
6477, XENCAV , CC=NNc1ccc(cc1N(=O)=O)N(=O)=O , P21/c ,1,1,1.45182607277,0.6773502818449999
6480, ZOWDOE , CN(C1=NN=NN1)c1cc(ccc1C)N(=O)=O , P21/c ,1,0,1.42651538256,0.6796673702339999
6481, IFIKEN , COC1CC2=NOC(=C(C)C)C32C(=O)C1CCC3(C)C , P21/c ,1,0,1.2218044031,0.671122320303
6483, UCONIJ , O=NN1CC=CC1 , Pna21 ,0,1,1.3718795889200002,0.726546223958
6484, EBOZED , O=C(c1ccccc1)C(=NNc1ccc(cc1N(=O)=O)N(=O)=O)c1ccccc1 , P21/c ,1,0,1.4556670179299998,0.707832988268
6485, CUZGAH , CC(ON1C(=O)CCC21CCCCC2C=C)c1ccccc1 , P-1 ,1,1,1.2218214704600001,0.690138043522
6486, VOVHAR , N=C1Oc2ccccc2C=C1c1ccc(cc1)N(=O)=O , P212121 ,0,1,1.4476298016999998,0.71286693392
6488, XAPQUD , ON=Cc1c(O)c(C=NO)c(O)c(C=NO)c1O , P21/c ,1,0,1.7621724061700001,0.784909132735
6489, DUTQAL , O=N(=O)c1ccc(NN=C2CCCc3ccccc23)c(c1)N(=O)=O , P21/c ,1,0,1.44923247579,0.700375804376
6490, HOCWAX , Cc1cc(C)nc(n1)N(=O)=O , P21/c ,1,0,1.3997527303100001,0.720289256198
6491, XICPII , COC(CC(C)Cc1c(OC)c(OC)cc(c1OC)N(=O)=O)C1OC(C(OC1=O)c1ccc(OC)cc1)c1ccc(OC)cc1 , P212121 ,0,0,1.28070965462,0.594903691814
6492, BUGPIC , CC1=NN(c2ccccc2N(=O)=O)C(=C1)C(C)(C)C , P212121 ,0,0,1.2253893006799998,0.6665007411339999
6493, TAHMEV , O=N(=O)C12C3C4C5C3C1C5C24 , Pnma ,1,1,1.47367835704,0.7017447199269999
6494, TAYTIY , CC1CCC2C(C)(C)C3(C)CCC12CC3OC(=O)c1cc(cc(c1)N(=O)=O)N(=O)=O , P212121 ,0,0,1.30507925961,0.6707033571000001
6495, GEZNAA , CC(=O)OCC(OC(C)=O)C(OC(C)=O)C(OC(C)=O)C(OC(C)=O)C1CC2C=CC1(C1C=CCC21)N(=O)=O , P212121 ,0,0,1.29006812254,0.646429675766
6496, MOSCON01 , OCCN1N=NNC1=NN(=O)=O , P-1 ,1,1,1.73278901527,0.7541280864200001
6497, QOHRUB , COC(=O)C1=C(C(=O)OC)C2(C)CC(C)(C)C(O)N2O1 , P21 ,0,0,1.30891914824,0.6734006734010001
6498, VETLIQ , C=NNc1ccc(cc1N(=O)=O)N(=O)=O , P-1 ,1,1,1.6498338802099999,0.7462537462540001
6500, UKEPIK , CCC1C(CN(=O)=O)c2ccccc2OC1=O , P21 ,0,0,1.43444889176,0.733597316174
6501, FENPET , O=C(Nc1ccc(cc1N(=O)=O)N(=O)=O)c1ccc(cc1)C(=O)Nc1ccc(cc1N(=O)=O)N(=O)=O , P1121/n ,0,0,1.6337829712099998,0.730413105413
6503, JEXMII , O=N(=O)N1CCN(C2C1N(CCN2N(=O)=O)N(=O)=O)N(=O)=O , P-1 ,1,1,1.8216039929799999,0.7590339485079999
6504, RAVVES , CC1C(OC(C)=O)C2CC2(C1C1CCCCC1)N(=O)=O , P21 ,0,0,1.22564479764,0.676717836257
6505, SUFZOI01 , O=N(=O)c1cc2OCCOCCOCCOCCOc2cc1N(=O)=O , P21/c ,1,0,1.47327257392,0.6982724640829999
6507, HASHAK , O=N(=O)C12C3C4C1C1(C4C3(C21)N(=O)=O)N(=O)=O , Pbca ,1,0,1.73763017807,0.72750385208
6508, FUPLAF , O=N(=O)C(=NNc1ccccc1Oc1ccccc1)N=Nc1ccccc1Oc1ccccc1 , P21/c ,1,0,1.37689286561,0.688625384278
6509, VAWWEW , COCCOC(=O)C1=C(C)NC(=C(C1c1cccc(c1)N(=O)=O)C(=O)OC(C)C)C , P21/c ,1,0,1.26632727731,0.629866666667
6510, YOBNOU , CCCNC1=C(C(=O)c2ccccc2C1=O)N(=O)=O , C2/c ,1,1,1.44370297618,0.7169117647059999
6511, VIPYUP , [O]n1cccc2cccc(c12)N(=O)=O , P21/n ,0,0,1.59271909558,0.7582183908050001
6512, ROFNIK , Cc1ccc(cc1C1=NN=NN1)N(=O)=O , P21/c ,1,0,1.4472261850400001,0.6745314401620001
6514, SOXGUI , COc1ccc(C=NOCCCCCON=Cc2ccc(OC)cc2O)c(O)c1 , P-1 ,1,1,1.2836022464499999,0.670036552389
6515, NAQGUJ , CN(C)c1ncnc2N(C=Nc12)C1CC(O)C2ON=C(C12)c1c2ccccc2cc2ccccc12 , P-1 ,1,1,1.36525582973,0.689175920514
6516, DUWKOX , OCC(C=C)C1CC[N+]2([O-])CCC3=C(Nc4ccccc34)C2C1 , P21 ,0,0,1.29502749297,0.69974668189
6517, ZURQOU , None , Pnma ,1,0,1.24252408107,0.6639193729
6518, RUTQOO , Oc1cc(OCc2ccccc2)ccc1C=Nc1ccc(cc1)N(=O)=O , P21/c ,1,0,1.3644940978100002,0.6875687871449999
6519, VIMHEE , O=C(NCCCON(=O)=O)C(=O)NCCCON(=O)=O , P21/c ,1,1,1.50267066304,0.64303438497
6520, CEGKIK , Cc1ccc2O[N+](=C(Cc3ccccc3)c2c1)[O-] , P21/n ,0,0,1.31589853845,0.688044532007
6521, LIKDAK , CC1(C)CC(O)(Cc2ccccn2[O])CC(C)(C)N1[O] , P-1 ,1,1,1.23059446785,0.675763482781
6522, ATAWIC , CC(=O)C1(O)CCCCC1N(=O)=O , P21/n ,0,0,1.34042391422,0.6897035353290001
6523, CIMREX , COC(=O)C(CC(CN(=O)=O)c1ccccc1OC(=O)c1ccccc1)=NNc1ccc(cc1N(=O)=O)N(=O)=O , P21 ,0,0,1.45689993715,0.7038134024439999
6524, ZULNUP , CCOC(=O)Cc1cc(nc(C)c1C(=O)OCC)c1cc(ccc1O)N(=O)=O , P21/c ,1,1,1.3833069767,0.6757007238930001
6525, POCGIX , CC1(C)N(O)C(=C(C1=O)C1=C(N(O)C(C)(C)C1=O)c1ccccc1)c1ccccc1 , C2/c ,1,1,1.29234763517,0.678020683536
6526, XUGXOM , O=C1C(CCCc2ccccc12)=Cc1ccccc1N(=O)=O , P21/a ,0,0,1.40408231252,0.7325624266799999
6527, BUXDOO , CC(C)C1=NOC(C1)C(C)(O)C1CCC2(O)C3=CC(=O)C4CC5OC(C)(C)OC5CC4(C)C3(O)CCC12C , P212121 ,0,0,1.24218909687,0.6798533145899999
6528, NAXJAZ , CC1=NON=C1NC(=O)NCc1ccccc1 , P21/c ,1,1,1.3340955240999999,0.6716285240459999
6529, MIYFUV , O=N(=O)c1ccc(cc1)C(C1=CC=CN1)C1=CC=CN1 , P21/c ,1,0,1.37132790429,0.702774515735
6530, APPXDZ , Nc1ccc(cc1)C1=NOC(=N1)c1ccccc1 , P21/c ,1,0,1.31117563238,0.675738705123
6531, NTROMA01 , CN(=O)=O , P212121 ,0,0,1.4223650051899999,0.708570075758
6532, ERSTNB , COc1c2C=CC(C)(C)Oc2c(CCCOC(=O)c2ccc(cc2)N(=O)=O)c2OC(C)(C)C=Cc12 , P21/n ,0,1,1.2688321810799998,0.6628378711649999
6534, IFOFIT , Cc1ccccc1C1CC(N(O1)c1ccccc1)c1ccccc1C , Cc ,0,0,1.22751362997,0.6876852248049999
6535, SIVREU , ON=C1C2CC(C=C2)C1(O)C1C2CC(C=C2)C1=O , C2/c ,1,0,1.35563420012,0.691516432876
6537, KABDAS , CC(C)(C)OC(=O)C=CCC1(C)CC21CC(C=C2)=NNc1ccc(cc1N(=O)=O)N(=O)=O , P21/c ,1,0,1.28277482525,0.658086130627
6538, NIPYAZ , O=N(=O)N1C=CC=N1 , P21/c ,1,0,1.58519899688,0.716952246364
6539, SEKGAR , CC1=[N+]([O-])C(C)(C)CC(C)(C)N1[O] , P21/n ,0,0,1.18519078977,0.6812265706999999
6540, ERULUA , CC1(C)ON2C(N(OCc3ccccc3)C1=O)c1ccccc1C=C2c1ccccc1 , P21/n ,0,1,1.2607148178399998,0.6627296209179999
6541, TUNYIM , O=NC(=C1CCCN1)N(=O)=O , P21/n ,0,0,1.56683975101,0.7362302666760001
6542, TATZEW , CCOC(=O)c1cnc(cc1c1cccc(c1)N(=O)=O)c1ccccc1 , P-1 ,1,1,1.3411987758,0.678236397749
6543, IPUWEW , CC(C)(C)OC(=O)NC(CO)C(=O)NN=Cc1cccc(c1)N(=O)=O , P1 ,0,1,1.38981545257,0.6928111626569999
6544, TIBKOE , COC(=O)C1=Cc2cc(ccc2OC1N1CCOCC1)N(=O)=O , P21/n ,0,0,1.41096466674,0.681805745554
6545, LEBMAI , CCOC(=O)C=CCC(C=CC(=O)OCC)N([O])=C1C(=O)N(CC=C)c2ccccc12 , P-1 ,1,1,1.30101153725,0.6943781708490001
6546, CAKWIV , C1CC2ON(Cc3ccccc3)C3C2C(C1)N1C=CC=C31 , P21/c ,1,0,1.2600317621600001,0.6786194997480001
6547, KIDXED , C=CC1N(OCc2ccccc2)C(=O)C2CC(=O)N12 , P212121 ,0,0,1.30201770516,0.6776002358490001
6548, BAKJUV , CON1C(=O)C2(CC(O)C3COC2CC3=O)c2ccccc12 , P-1 ,1,1,1.3502485278999998,0.662214299018
6549, DUPJII , CCCCC(=O)Oc1ccc(O)c(c1)N(=O)=O , P-1 ,1,1,1.40913889176,0.716368139076
6550, TAHYEH01 , O=C(NCc1ccccc1)c1ccc(cc1)N(=O)=O , P21/c ,1,0,1.3926084233899998,0.7089162561579999
6551, FAHPEJ , CC(C)C(O)C(C1CCOC(O1)c1ccccc1)N(=O)=O , P212121 ,0,0,1.25051831862,0.657975121079
6552, QAGMUJ , O=C(OC1CCCC2OC3OCCC3C12)c1ccc(cc1)N(=O)=O , Cc ,0,0,1.4184400713299998,0.704989279235
6553, QIRRUG , CN1CC2(CNC(=O)C(C1)(C2)N(=O)=O)N(=O)=O , P21/n ,0,0,1.57967381383,0.728982582044