ID,name,smiles,space_group,inversion_symmetry,beta_packing,density,packing_coefficient
1619, RUKCUW , COC(=O)C12CCC(C1C1CCC3C4(C)CCC(=NOC(C)=O)C(C)(C)C4CCC3(C)C1(C)CC2)C(C)=C , C2 ,0,0,1.2383574926799998,0.69735034647
1621, LOZFIP , COC(=O)C1C(COC(=O)NC(C)c2cccc3ccccc23)ON(C1C(=O)N(C(C)C)C(C)C)c1ccccc1 , P21 ,0,0,1.24343545635,0.661616161616
1622, CETQOI , O=C1CCCC2C1C2N(=O)=O , P212121 ,0,0,1.41069690088,0.719642857143
1623, PAKNUN , CONC1C(N2N(C(=O)N(C2=O)c2ccccc2)c2cc(OC)ccc12)C(C)=NOC , P21/c ,1,0,1.32448225215,0.661089220377
1624, XUHPIB , COC1=NON=C1NN=NC1=NON=C1OC , P21/c ,1,0,1.5904036157499999,0.7019730474279999
1625, PILVOY , O=C(Nc1ccc(cc1)N(=O)=O)C=C(Nc1ccccc1)c1ccccc1 , Pbca ,1,0,1.30595768911,0.666016421869
1626, XEVFOU , COC1OC(=O)C2C1ON(C2c1ccccc1)c1ccccc1 , P21/c ,1,0,1.36152807653,0.691310344828
1627, YABMOE , CC1CC23OCC(N2C(=O)CC3C1CN(=O)=O)c1ccccc1 , P21 ,0,0,1.33432832271,0.689046837981
1628, RIRZAU , COC(=O)C(O)(Cc1ccccc1N(=O)=O)C1CCCC1=O , P21/c ,1,0,1.39677001122,0.695952775209
1629, ELUROT , COc1cccc(c1)c1cc(cc(c1)N([O])C(C)(C)C)N([O])C(C)(C)C , P-1 ,1,0,1.19182606074,0.676356806459
1631, OCHTET16 , O=N(=O)N1CN(CN(CN(C1)N(=O)=O)N(=O)=O)N(=O)=O , P21/n ,0,1,1.9152601764300001,0.7792122701209999
1632, HOPINB , [O]N1c2ccccc2C=CC1(c1ccccc1)c1ccccc1 , P21/c ,1,0,1.2332012181299998,0.669984387198
1633, TEHXIN , CCCCOC(=O)C1=C(C)NC(=C(C1c1cccc(c1)N(=O)=O)C(=O)OCCCC)C , P21/c ,1,0,1.20890556265,0.6769099108
1634, ZEGMOQ , COC(=O)c1cc(OCC(C)C)c2cc3c(OCC(C)C)cc(nc3c(C)c2n1)C(=O)Nc1cc(C)c(Nc2cc(Nc3c(C)cc(NC(=O)c4cc(OCC(C)C)c5cc6c(OCC(C)C)cc(nc6c(C)c5n4)C(=O)Nc4cc(C)c(Nc5cc(Nc6c(C)cc(NC(=O)c7cc(OCC(C)C)c8cc9c(OCC(C)C)cc(nc9c(C)c8n7)C(=O)Nc7cc(C)c(Nc8cc(Nc9c(C)cc(NC(=O)c%10cc(OCC(C)C)c%11cc%12c(OCC(C)C)cc(nc%12c(C)c%11n%10)C(=O)OC)cc9C)c(cc8N(=O)=O)N(=O)=O)c(C)c7)cc6C)c(cc5N(=O)=O)N(=O)=O)c(C)c4)cc3C)c(cc2N(=O)=O)N(=O)=O)c(C)c1 , P-1 ,1,1,1.14582189977,0.586443026156
1636, JOKCOD , O=C1CC(OC2(C1)C(=O)Nc1ccc(cc21)N(=O)=O)c1ccccc1 , P21/c ,1,0,1.4170018306299998,0.687242798354
1637, EGUWOT , CC1(C)CC(=CC(C)(C)N1[O])C#C , P21/c ,1,1,1.12489492404,0.6769171688529999
1638, JESJAT , O=C(OCC(N(=O)=O)(N(=O)=O)N(=O)=O)c1ccccc1 , P-1 ,1,1,1.63808212562,0.7205897435899999
1639, QOQZIH , O=C1CCC2C(CCCN12)COC(=O)c1ccc(cc1)N(=O)=O , P21 ,0,0,1.3648242565600002,0.690442436056
1640, JEDVUJ , ON1CC(=O)NC(Cc2ccccc2)C1=O , P212121 ,0,0,1.3834453399700002,0.720056013466
1642, LUDXEN , CCCCCCCCOc1cc(OCCCCCCCC)c(cc1NC(=O)c1ccc(NC(=O)c2cc(c(OCC(C)C)cc2OCC(C)C)N(=O)=O)c(OC)c1OC)C(=O)Nc1cc(C)ccc1OC , P21/n ,0,0,1.24167537751,0.681417500547
1643, XUNYEL , CCCCCCCC1=C2C=CC(=N2)C(=C2NC(=C(C3=NC(=C(CCCCCCC)C4=CC=C1N4)C=C3)N(=O)=O)C=C2)CCCCCCC , P-1 ,1,0,1.5137352053400002,0.7098701438320001
1644, LAJBON , COC1(OC)N([O])C(C)(C)N(=C1c1ccccc1)[O] , P21/n ,0,1,1.33531230535,0.621686171483
1645, CUKCAM20 , OC(=O)c1cc(cc(c1)N(=O)=O)N(=O)=O , C2/c ,1,0,1.7342364483300001,0.757257448434
1646, DUHSUV , CCN1C2C3C(=NOC3(C)OC2(NC(=C1C#N)C#N)c1ccccc1)C , P-1 ,1,0,1.27152390787,0.6603437410040001
1648, KIJCOY , O=N(=O)C(CN1N=NC(=C1C#N)C#N)(N(=O)=O)N(=O)=O , P21/n ,0,0,1.71553707751,0.706002918321
1649, EYIXIT , CC1(C)CCCC(C)(C)N1OC(CO)CO , P21/n ,0,1,1.16207541919,0.6797992412639999
1650, UJIHEA , CC1(C)N([O])C(=N([O])C1(C)C)CN(Cc1cccc(n1)c1ccccn1)CC1=N([O])C(C)(C)C(C)(C)N1[O] , P-1 ,1,1,1.2695914858,0.670153920154
1651, ISABIO , CCOC(=O)C(CC1ON=C2C1COC2=O)NC(=O)OC(C)(C)C , P-1 ,1,1,1.29172705066,0.641666475065
1653, RAPFIY , COC(=O)c1cc(cc(c1)N(=O)=O)N(=O)=O , P21/c ,1,1,1.59310098783,0.709251389343
1654, SEDTUQ03 , NC(N)=C(N(=O)=O)N(=O)=O , P21/n ,0,0,1.8933766838599997,0.7794781070319999
1655, DIQGOZ , COc1cccc(C=N([O])c2ccccc2)c1O , P21/n ,0,0,1.3624407704799997,0.697053070386
1656, TAXLUB , CC(C)C1OC(=NN1C(=O)COCc1ccccc1)c1ccc(cc1)N(=O)=O , C2/c ,1,0,1.3648331629600001,0.702213788741
1657, KOHQOO01 , O=C(NC1CCCCC1)N(C1CCCCC1)C(=O)c1ccc(cc1)N(=O)=O , C2/c ,1,1,1.27101694291,0.664221659793
1658, PATNUU , CCC1(C)N([O])C(=N([O])C1(C)CC)c1ccc(cc1)N(=O)=O , P212121 ,0,0,1.2654036703,0.6569739194650001
1659, FAHKII , OC(CN(=O)=O)C1CCOC(O1)c1ccccc1 , P21 ,0,0,1.34489426445,0.676665543197
1661, WOMXUR , CC(=NO)c1cccnc1 , C2/c ,1,0,1.28421075382,0.692805716451
1662, ROGZAO , CC(C)CC1CC(=NNc2ccc(cc2N(=O)=O)N(=O)=O)C(C)(C)CO1 , P-1 ,1,1,1.3558851932799998,0.7080294275519999
1663, BIKGEI , CC1CCCC(O1)OC(C(C)N(=O)=O)c1ccccc1 , C2 ,0,0,1.24885158447,0.676284306826
1664, NCBXRF , CC1=NC(=C(N1C1OC(CON(=O)=O)C(ON(=O)=O)C1ON(=O)=O)C(=O)NN(=O)=O)C(N)=O , P21 ,0,0,1.7002540687099998,0.703626057924
1665, BOZGIH , CN1N=CC(=C1C(O)=O)N(=O)=O , Pccn ,1,0,1.66083274539,0.736129981884
1666, BOTJAX , CC(C)(C)C(=O)Nc1cccc(COc2cccc(OCc3cccc(NC(=O)C(C)(C)C)n3)c2N(=O)=O)n1 , C2/c ,1,1,1.33345891767,0.697697846479
1667, UZEXAA , O=N(=O)N1C2CCCCC2N=C1C(N(=O)=O)(N(=O)=O)N(=O)=O , P21/c ,1,0,1.59998324382,0.685664758714
1669, CPGMAZ , CON1C(C#N)C1C(=O)C(=O)c1ccccc1 , Pbca ,1,1,1.30232699445,0.662566300279
1670, TAYBIG , COC(=O)C(CC(=O)c1ccccc1)c1ccc(cc1)N(=O)=O , P21 ,0,0,1.44700767609,0.7349198190790001
1671, NEKBOV , CC(C)(C)N([O])c1ccc(cc1)C1=CN(C2CC(O)C(CO)O2)C(=O)NC1=O , P21 ,0,0,1.39313649319,0.7013631707510001
1672, JIMTOO , COC1CC(OC(=O)C23CCC(C)(C(=O)O2)C3(C)C)C=C2CCCC12N(=O)=O , P212121 ,0,0,1.29279428984,0.667675916862
1673, VIHVAL , COC(=O)C1OC2(CCC(OC(=O)c3cc(cc(c3)N(=O)=O)N(=O)=O)C=C2)OC1C(=O)OC , P212121 ,0,0,1.49674182596,0.693929425837
1674, SITPUI , COc1ccc(c(N2C=NC=N2)c1N(=O)=O)N(=O)=O , Pbca ,1,0,1.57025944466,0.695967719532
1675, REBHOW , Cc1cccc(C2=Nc3ccccc3N2)c1N(=O)=O , P21/c ,1,0,1.33665407764,0.662191667118
1676, IVATOP , Cc1cc(C)c(C=C2C(=O)ON=C2c2ccccc2)c(C)c1 , P21/c ,1,0,1.2377079713299999,0.667836758511
1677, RENTUZ , CN(C)c1ncnc(N(C)C)c1N(=O)=O , P21/n ,0,0,1.3630433237900001,0.693707444819
1678, UDUDON , CC(C)(C)OC(=O)N1OC2CC1C1C2N=NN1Cc1ccccc1 , P21/c ,1,0,1.30995829421,0.683506308506
1679, OGEPUM , O=C(Nc1cccc2cccnc12)c1ccc(cc1)N(=O)=O , P21/c ,1,1,1.5096971063299998,0.7438357799259999
1680, ILOQEH , CN1N=NC(=N1)c1ccc(cc1)N(=O)=O , P-1 ,1,1,1.49006796618,0.706412294648
1682, HUDLOI , CC(C)NC(=O)c1cccc(C)c1N(=O)=O , Pbca ,1,0,1.179876553,0.615874833752
1683, SETWEU , O=C1C2CCN(CC2)C1=CC1=CN(Cc2ccccc2)c2ccc(cc12)N(=O)=O , P-1 ,1,1,1.4170733979899999,0.733915906788
1684, OWUQEE , Oc1ccc(cc1C=Nc1ccccc1)N(=O)=O , P21/n ,0,0,1.41162798321,0.691267112838
1685, CATLUE , Oc1ccccc1C1=NN(C=C1C=O)c1ccc(cc1N(=O)=O)N(=O)=O , P21/c ,1,0,1.53427600389,0.7085905349789999
1686, NIRJEE , Cc1cccc(C=NO)c1O , P21/c ,1,0,1.33172096316,0.6927622163160001
1687, AGITER , COc1c(OC)c2cc(cc3c(OC)c(OC)c4cc(cc1c4c23)C1=[N+]([O-])C(C)(C)C(C)(C)N1[O])C1=[N+]([O-])C(C)(C)C(C)(C)N1[O] , P21/n ,0,0,1.3801298232199999,0.705747804164
1688, NIKZAI , CC1(C)OCC(O1)C1CC(=O)ON1Cc1ccccc1 , P21 ,0,0,1.22323472767,0.643355726361
1689, CACROO , NC1=C(C=O)N=CN1OCc1ccccc1 , P212121 ,0,0,1.3485359911800001,0.6859952080410001
1690, GAMQAO , CC(C)(C)OOC(CC(=NNc1ccc(cc1N(=O)=O)N(=O)=O)c1ccccc1)c1ccccc1 , P-1 ,1,1,1.32275744006,0.6808464111139999
1692, BOSSEJ , COC1(OC)C=CC(=O)c2c(OCc3ccccc3)c3c(ON=C3OCc3ccccc3)cc12 , P21/c ,1,1,1.3508722603299999,0.680310886066
1693, HOWJEI , O=N(=O)C1CC(N(=O)=O)C2(OCCO2)C(C1)N(=O)=O , P21/n ,0,0,1.5475959568000002,0.6754629629629999
1695, WEJJOL , O=C(C=CC1=CC=CO1)c1ccc(cc1)N(=O)=O , P21/c ,1,0,1.4760491256600001,0.7309106098579999
1696, RIGSOS , Cc1ccc(cc1)N1OC23C4c5ccccc5C(c5ccccc45)C2(C1C(=O)Nc1ccccc1)C(=O)N(C3=O)c1ccccc1 , I2/c ,0,0,1.3127488062700001,0.6659564393940001
1697, NEHYIK , CC(C)C(=O)C1=C(C(=O)c2ccccc2)C(=NO1)C(=O)C(C)C , P21/n ,0,0,1.2025479664399998,0.635952158641
1698, BURJED , O=C1CCCC(CCC1)OC(=O)c1cc(cc(c1)N(=O)=O)N(=O)=O , P21/n ,0,0,1.4234518908200002,0.6867827208249999
1699, NERQOT , O=C(C1=CC=CO1)C(=CC1(CC1)N(=O)=O)c1ccccc1 , P21/n ,0,0,1.33492014166,0.675614035088
1700, TIGYOX , CCOC(=O)C(CC(=O)OC(C)(C)C)(CC(=O)OC(C)(C)C)N(=O)=O , P21/c ,1,0,1.2261410803,0.656352050976
1701, MUMDIJ , CC(C)(C)OC(=O)NC(C(c1ccc(cc1)C(C)(C)C)N(=O)=O)c1ccccc1 , P21 ,0,0,1.21707618325,0.66617558094
1702, TAVPIQ , CCC(C)COc1ccc(cc1)C1=N([O])C(C)(C)C(C)(C)N1[O] , P212121 ,0,0,1.1892407217899998,0.667600921409
1703, ICUXAI , CC1(C)CC(Nc2ccccc2)ON(C1=O)c1ccccc1 , P21/c ,1,0,1.25807941187,0.672848200313
1704, NPGLPN , CC(=O)OCC1OC(Oc2ccc(cc2N(=O)=O)N(=O)=O)C(OC(C)=O)C(OC(C)=O)C1OC(C)=O , P212121 ,0,0,1.4154347687399997,0.611826106232
1705, JAXTAE , O=N(=O)c1cccc(C=NN=Cc2cccc(c2)N(=O)=O)c1 , P21/n ,0,1,1.447255704,0.698197802198
1706, HIZGUU , O=C(OC1CC2CCC1C2)c1ccc(cc1N(=O)=O)N(=O)=O , Pbca ,1,0,1.48003921661,0.7108205128210001
1707, WIJJAC , CC1(C)CN2N=C(C=C2C1)c1ccc(cc1)N(=O)=O , P21 ,0,0,1.37240402532,0.716606634594
1708, AKEFIH , CCN1N=Cc2cc(ccc12)N(=O)=O , P212121 ,0,1,1.4264838423100001,0.707753931189
1709, JIZJIL01 , CN1C(=NC=C1N(=O)=O)C , Pmcn ,0,0,1.51852128908,0.7431217396400001
1710, LEPVIL , CC(=O)OC12CC3C(C1C(=NO2)C)C3(C)C , P212121 ,0,0,1.2358389146100002,0.67722681949
1711, COGGAI , O=N(=O)C1=NN(C=N1)N=NN1C=NC(=N1)N(=O)=O , P21/c ,1,0,1.8192306762700001,0.725928151709
1712, EZUDUY , CC(C)C(=O)NOC(C)CC(=O)NC1CCCCC1 , P21 ,0,0,1.1141732979,0.624704770902
1713, CUYMIS , OCC1=CC2CCC1ON2C(=O)c1ccccc1 , P21/n ,0,0,1.36518086568,0.706724506599
1714, GEDWUH , CC1=C(C#N)C(=O)C(C)(C)C(N(=O)=O)C1(C)N(=O)=O , P21/n ,0,0,1.43972156393,0.6988002473720001
1715, LOGMUR , COc1ccc(cc1)C1C(C#N)C(O)(N2CCNC2=C1N(=O)=O)c1ccccc1 , P21/n ,0,0,1.31227822595,0.6585433244919999
1718, NUFDUP , ONC(=O)CCCCC1=CC=NN1Cc1cccc(c1)c1ccccc1 , Pc ,0,0,1.24994164379,0.66914301504
1719, EFIFOP , COc1ccccc1NC(=O)COc1ccccc1NC(=O)COc1ccccc1NC(=O)COc1ccccc1NC(=O)C(C)Oc1ccccc1N(=O)=O , P212121 ,0,0,1.4060665620100001,0.70451976411
1720, GIMQUP , CC(C)=Cc1ccc2cccc(c2n1)N(=O)=O , Pnma ,1,1,1.35910251502,0.706769880366
1721, KIQWUE , CCCCN1N=CC=C1C1=[N+]([O-])C(C)(C)C(C)(C)N1[O] , P21/c ,1,1,1.19981572873,0.667224833529
1722, HAXKAS , COC(=O)C1C2CC(=NO)C1CC2=NO , P21/c ,1,0,1.4622982573199999,0.648881987578
1725, NIJPEB , CC(=O)OCC12OOC(C)(OCC1=NO)O2 , P-1 ,1,0,1.61612954147,0.746853520187
1726, IPAQEX , COc1cc2c(C(O)CC3C4(C)CCCC(C)(C)C4CCC23C)c(c1OC)N(=O)=O , P1 ,0,1,1.24470177517,0.6742578125
1730, EQIXOS , CON(OC)C(=O)Nc1ccc(cc1)N(=O)=O , P21/c ,1,0,1.52752005007,0.740661764706
1732, WITTAW , O=C(Nc1cccc[n+]1[O-])c1ccccc1Oc1ccccc1 , P-1 ,1,1,1.3627753878400002,0.682780264444
1733, OCAKEK , CC1(C)N([O])C(=N([O])C1(C)C)c1ccc(OCCO)cc1 , Pbca ,1,0,1.3082516018400001,0.6868639362469999
1735, JOLDOD , COc1ccc2OC(OC)(c3ccc(cc3)N(=O)=O)C(Nc3ccc(C=O)cc3)(OC)C(=O)c2c1 , C2/c ,1,0,1.3929046428,0.685726412806
1737, GEKQAQ , CC1=CC(=NO1)NCNC1=NOC(=C1)C , C2/c ,1,1,1.37586690269,0.7037307554600001
1738, AJIYAT , CC1(C)N([O])C(=N([O])C1(C)C)c1ccncc1 , C2/c ,1,1,1.30331285432,0.696203796204
1740, SOPFIM , CC1(C)OC2OC(C3CC(=NO3)c3ccccc3)C(OCc3ccccc3)C2O1 , P212121 ,0,0,1.24577348231,0.675140247305
1741, JUBDEP , None , Ccm21 ,0,0,1.4322677965200001,0.706624013902
1742, CAMMUA , Oc1ccc(cc1)C(C=O)=Cc1ccc(cc1)N(=O)=O , Pna21 ,0,0,1.4342707332799998,0.714041137326
1743, WUXJII , O=NN1C(Cc2nc3ccccc3cc2C1c1ccccc1)c1ccccc1 , P21/a ,0,0,1.28963947,0.6731875399449999
1744, ZIKRET , O=C1C2CCCC1C(N(O2)c1ccccc1)c1ccccc1 , P21/c ,1,0,1.2558559829,0.680626780627
1745, TMFZNO , [O]N1=C2CCCC2=NO1 , Pbca ,1,0,1.4975589637399997,0.725753295669
1746, VUHRUN , CCCCCCCCCCCCCCOc1ccc(cc1)C1(C)CCC(C)(N1[O])c1ccc(cc1)C(=O)NC(C)C(O)=O , P212121 ,0,0,1.15636045312,0.667765461448
1747, WEPXOF , CCC(C(N(C(C)c1ccccc1)C(=O)c1cc(cc(c1)N(=O)=O)N(=O)=O)c1ccccc1)C(=O)OC , P21 ,0,0,1.30166157506,0.662399554736
1748, HODSEZ , CC1(C(C2CCCN2C21C(=O)Nc1ccccc21)c1ccccc1)N(=O)=O , P21/n ,0,0,1.39382378889,0.713953488372
1751, VUXWUI , CCOc1cccc2C=C(C(=O)Oc12)c1ccc(cc1)N(=O)=O , P212121 ,0,1,1.3954552653799999,0.687520703934
1752, ECINEL , COc1ccc(c(O)c1)c1c(cc(c(O)c1c1ccccc1)c1ccccc1)C(=O)c1ccccc1N(=O)=O , Pbca ,1,0,1.40605238622,0.739668590793
1753, EGUXEL , CC(C)C1(C)N(C)C(=O)C(C)(N1[O])c1ccc(C)cc1 , P21/c ,1,0,1.18195007951,0.668923868924
1754, CUCDOT , CC1COC(C)(C)N2C1C(C(C)OC(=O)OCc1ccccc1N(=O)=O)C2=O , P-1 ,1,1,1.25595933094,0.652440949243
1755, IYAYAK , CON=N([O])C(CO)(CO)N([O])=NOC , P-1 ,1,1,1.4432916512,0.6731862032510001
1756, BALVAO , CC1=[N+]([O-])ON=C1C=NNC(N)=NN(=O)=O , P21 ,0,0,1.6530479270899998,0.727323288502
1757, POBTEF , OC(=O)CCC(=O)OC1CC2CC1C(C2c1ccccc1)(C(=O)c1ccccc1)N(=O)=O , C2/c ,1,1,1.34969717863,0.676125194937
1758, AWOJIF , CCOc1ccc(cc1)[N+]1=NOC(=C1C1=NOC2(C)C1C(=O)N(C2=O)c1ccccc1)[O-] , P-1 ,1,1,1.4022916809200001,0.6342098081399999
1759, JOZREX , CC1(C)OCC2(OC=C(C(C2O1)C1=CC=CO1)N(=O)=O)N1CCOCC1 , Cc ,0,1,1.4418187154299997,0.7157693001440001
1760, MUWBOW , CCOC(=O)C(C=Cc1cccc(c1)N(=O)=O)=Cc1ccccc1 , P21/c ,1,0,1.32411289159,0.695791766999
1761, NBZOAO , OC(=O)c1ccccc1N(=O)=O , P-1 ,1,1,1.5669413858399999,0.7052631578949999
1762, XESMUE , COc1ccc(cc1)C1N(OC2(NC(C)(C)CO2)C2(C)OC12c1ccccc1)C(C)(C)C , P-1 ,1,1,1.21118625636,0.6740436370630001
1763, WEFMIE , Oc1cccc(C=CC(=O)c2ccc(cc2)N(=O)=O)c1 , P21/c ,1,0,1.40796259461,0.700441549571
1764, AXALAM , CC(=NO)C(C)=NNC(=O)c1ccccc1O , P21/n ,0,0,1.3583457057100001,0.6820810792759999
1765, NAQWIL , CCOC(=O)C(=NO)C1=CC=CO1 , P21/n ,0,1,1.4164798182700002,0.697008638538
1766, KAZVOZ , COC(C1COC(=O)N1)c1ccc(cc1)N(=O)=O , P21 ,0,0,1.4149459952899999,0.6801175015459999
1767, QEPZAO , CCOC(=O)C1=C(C(=O)c2ccc(C)cc2)C(=NN1c1ccc(cc1N(=O)=O)N(=O)=O)c1ccc(C)cc1 , P-1 ,1,1,1.3513053137900002,0.664258732339
1769, YEDHEU , ON=C1C(COC(c2ccccc2)(c2ccccc2)c2ccccc2)OC(C1OC(c1ccccc1)(c1ccccc1)c1ccccc1)N1C=CC(=O)NC1=O , P21 ,0,0,1.25322048536,0.6602738095239999
1770, EZOLIO , CN1OC(CC1c1cc2CCc3ccc(CCc1cc2)cc3)c1ccccc1 , P21/n ,0,0,1.23149041839,0.69203424663
1771, PUBMUU06 , O=N(=O)N1C2C3N(C1C1N(C(C(N3N(=O)=O)N1N(=O)=O)N2N(=O)=O)N(=O)=O)N(=O)=O , P21/n ,0,0,1.9180680996400001,0.704992112608
1772, SEYMUE , CC1(C)OCC(O1)C1NC(=NO1)c1ccccc1 , P212121 ,0,1,1.3056681566700001,0.609860953717
1775, WIKYUK , CC1CC(C)(C)c2cc(c(C)cc2C1(C)C)N(=O)=O , P21/n ,0,0,1.17162677176,0.692496757729
1776, SIFDOB , O=C1CCCC=C1OC(=O)c1cc(cc(c1)N(=O)=O)N(=O)=O , P21/n ,0,0,1.50222847075,0.728329882678
1779, TUFNEP , CC1=NN(C(C(O)C(=O)c2ccccc2)c2ccc(cc2)c2ccccc2)C(=C1N(=O)=O)C , P212121 ,0,0,1.2706271353799998,0.655169946333
1782, ELUDOF , COc1ccc(cc1)C=C(C(=O)c1ccccc1)N(=O)=O , C2/c ,1,0,1.3696447930899998,0.7016384457449999
1783, FUMLUW , CC(=NO)C(C)=NN=Cc1ccccc1O , P21/c ,1,0,1.35853627288,0.716224747475
1784, ROGJUT , Oc1cccc(C=NOCCCCON=Cc2cccc(O)c2O)c1O , C2/c ,1,0,1.3620449058000001,0.684867660067
1785, KUFYOB , CCOC(=O)C1=C(C)C2=CCC(C(N(=O)=O)C2(O)CC1)c1ccccc1 , P212121 ,0,0,1.27943988331,0.666413555389
1786, DOWGUR , CC(C1CC(=NO1)c1ccc(cc1)N(=O)=O)C(C)(C)C , P21/n ,0,0,1.23236119916,0.6651196670139999
1787, MAPJOD , OCNC(=O)NN=CC1=CC=C(O1)N(=O)=O , C2/c ,1,0,1.59541837718,0.738091320444
1788, KATHOE , O=N(=O)c1cccc(OCC2C=C(COc3cccc(c3)N(=O)=O)C3C4CC(C=C4)C=C23)c1 , P-1 ,1,1,1.35976217903,0.6756707325650001
1789, HEWZER , O=N(=O)c1ccc(cc1)C=C(N1CCCC1)c1ccccc1 , P2/c ,1,0,1.30918813828,0.7240531491940001
1790, XETJEN , [O-][n+]1c(CN2C=CN=N2)cccc1CN1C=CN=N1 , C2/c ,1,1,1.4447310878900002,0.695691719166
1791, HPXAXB01 , CCCCCCCOc1ccc(cc1)N=N([O])c1ccc(OCCCCCCC)cc1 , P-1 ,1,1,1.13939304623,0.6658130119569999
1792, DIKSIA , COC(=O)c1ccc(N2N=C(C=C2N)c2ccccc2)c(c1)N(=O)=O , P21/n ,0,0,1.43506004035,0.704534686303
1794, REVRER , CCN1C=C2C(=N1)C=CC=C2N(=O)=O , Pccn ,1,0,1.3851078715399998,0.685795325909
1796, BEVPEX , Oc1c(cc(cc1c1ccccc1)N(=O)=O)c1ccccc1 , C2/c ,1,0,1.34391126989,0.689748549323
1797, JOBMES , CCOC(=O)C1(CC(OC(=O)c2cc(cc(c2)N(=O)=O)N(=O)=O)C(C)C1C(C)=C)C(=O)OCC , P-1 ,1,1,1.27178355221,0.632607116921
1798, HEHRIX , CC1(C)N(CCN1Nc1ccc(cc1N(=O)=O)N(=O)=O)Nc1ccc(cc1N(=O)=O)N(=O)=O , C2/c ,1,1,1.4896735700200001,0.687888839746
1799, NMZNON01 , CN1CC2(CC(=O)CC(C1)(C2)N(=O)=O)N(=O)=O , Pccn ,1,0,1.4491577118799999,0.693539404066
1800, QAKQOK , OC(=O)CCC1=NC(=NO1)c1cccnc1 , Pna21 ,0,0,1.4867974504199999,0.7228930719359999
1801, TAJKEU , CCC(CC)(c1ccc(cc1)N(=O)=O)C(CC)(CC)c1ccc(cc1)N(=O)=O , C2/c ,1,1,1.25207204602,0.681133419341
1803, WADYAD , CCOC(=O)C1=C(c2ccc(cc2)N(=O)=O)C2=NC=CN2C=C1 , P21/c ,1,0,1.3927950524700001,0.675833333333
1804, PELMOJ , O=N(=O)c1ccc(cc1)C=NN=Cc1cccc(c1)N(=O)=O , C2/c ,1,0,1.4933862105000002,0.7212242280750001
1805, MUVGIU , CC(C)(C)OC(=O)C(=O)C(Cc1ccccc1)C(CN(=O)=O)c1ccccc1 , P212121 ,0,0,1.1929529770899998,0.6750859483580001
1806, YUJGIT01 , O=N(=O)c1ccc(cc1)C=NNc1ccccc1 , P42/n ,1,0,1.3554956573299999,0.689009853783
1807, IYIHEF , COC(=O)CC(=O)C(CC(=O)OC)=NNc1ccc(cc1N(=O)=O)N(=O)=O , P-1 ,1,1,1.5105555970200002,0.696835926903
1808, SAGLOD , CCOC(=O)c1ccccc1NC(=O)c1cc(cc(c1)N(=O)=O)N(=O)=O , P21/c ,1,0,1.46275101488,0.6919733791410001
1809, REBQAR , COCCCC12CC3CCC1(C=N(=O)OC2C=C(C)C)C(=O)O3 , P21/n ,0,0,1.32899460003,0.7081586303280001
1810, XEKWIW , O=C=Nc1ccc(cc1)N(=O)=O , P21/n ,0,1,1.4910518277200002,0.6975153193989999
1811, NEHQAU , [O-][n+]1cccnc1 , P21/n ,0,0,1.51449630184,0.750590031931
1812, ENIVAY , O=C(C=Cc1ccccc1)c1ccc(cc1)[n+]1cc([O-])on1 , P21/c ,1,0,1.3722551643599998,0.6917707404100001
1813, BUFDUC , CCOc1cc(ccc1O)C=NNc1ccccc1N(=O)=O , P21/c ,1,0,1.41173279407,0.7054583772390001
1814, FURSUI , CC(N1CC2(C)CC(C)(N(Cc3ccccc3)O2)C1=O)c1ccccc1 , P21 ,0,0,1.233237325,0.675582802291
1815, PUYYUD , COc1ccc2c(CCC3(C(C(N(C4CCCCC4)C3C(=O)c3ccccc3)c3ccccc3)c3cccc(c3)N(=O)=O)C2=O)c1 , P-1 ,1,1,1.23876834869,0.649848178138
1816, DIFGEF , O=C1C2C=CC(C1C1COCOCC21)c1ccccc1N(=O)=O , P21/n ,0,1,1.42801905257,0.715470455516
1817, LUCXOY , O=C1Nc2ccccc2C21C(C(C1CCCN21)c1ccccc1)N(=O)=O , P212121 ,0,1,1.34384736158,0.680495093666
1819, IKIWAC , O=C(OCC1CC21C1CCC2N2N1C(=O)N(C2=O)c1ccccc1)c1cc(cc(c1)N(=O)=O)N(=O)=O , P-1 ,1,1,1.49387993768,0.7007252326219999
1820, JUPSES , COc1c(cc(c(N)c1N(=O)=O)N(=O)=O)N(=O)=O , P212121 ,0,0,1.7100575038299999,0.7290498974709999
1821, RIKZOD , O=C1NN=NN1Nc1c(cc(cc1N(=O)=O)N(=O)=O)N(=O)=O , P21/c ,1,0,1.7126638019,0.682062757069
1822, LIHWEF , O=C1OC2CCCC2C(=O)N1c1ccc(cc1)N(=O)=O , Pbcn ,1,0,1.4764813489300002,0.699143173024
1824, BAFGUL01 , Oc1ccccc1C=NNc1ccc(cc1N(=O)=O)N(=O)=O , P21/c ,1,0,1.5822718278,0.736899608328
1825, MNIANL03 , Nc1cccc(c1)N(=O)=O , Pca21 ,0,0,1.4914641057700002,0.739215311005
1827, NETLAB , O=C(ON=C1CCCCC1)c1ccc(cc1N(=O)=O)N(=O)=O , Pccn ,1,0,1.44247430087,0.695576398663
1828, FACYAK , O=C(Nc1ccccc1)c1ccccc1N(=O)=O , Pbca ,1,1,1.373060344,0.679079861111
1829, ZZZKEA01 , [O-][N+]1=C2C=CC=CC2=NO1 , P-1 ,1,1,1.54956325216,0.715217479923
1830, CACFOD , CC1=C(C(CCC1)=NNc1ccc(cc1N(=O)=O)N(=O)=O)N(=O)=O , P21/c ,1,0,1.5053617213100001,0.702413188914
1831, JORCAU , CCC(N(=O)=O)(N(=O)=O)C(C)(C)N(=O)=O , Cc ,0,0,1.5213435044799999,0.718305344466
1832, ADOJEI01 , CC(=NO)C(C)=NCc1ccccn1 , P21/c ,1,0,1.2444713509,0.67733527308
1833, PIMWEQ , O=C1CC(Oc2ccccc12)c1ccccc1OCC1=CN(N=N1)c1ccc(cc1)N(=O)=O , P-1 ,1,1,1.41652184357,0.684786132934
1834, TELYIS , CC(=O)OC1CCC2C3CCC4=CC(CCC4(C)C3CCC12C)=NOCc1ccccc1 , P212121 ,0,0,1.16165108553,0.643439131884
1835, BUGQOK , COc1ccc2CC3N(C)CCC45C(Oc1c24)C1(OC)C=CC35CC1c1cccc(c1)N(=O)=O , P212121 ,0,0,1.35304365994,0.6850078492939999
1836, YODKIN , COc1ccc(cc1N(O)C(C)(C)C)C(C)(C)C , P21/c ,1,0,1.1001607516,0.6464953657729999
1837, APEZOL , None , Pnma ,1,0,1.65516102213,0.731225949976
1839, MOQQOZ , COC12OCC3OC(C)(C)C1CON(Cc1ccccc1)C23 , P21 ,0,0,1.29118133627,0.6869520030230001
1840, WIGWAM , O=C(Oc1ccc(cc1)C1=NC(=NO1)c1ccc(OC(=O)c2ccccc2)cc1)c1ccccc1 , P21/c ,1,1,1.3438479334600002,0.666127089781
1841, XENWAQ , CCCOc1c2Cc3cc(cc(Cc4cc(cc(Cc5cc(cc(Cc1cc(c2)N(=O)=O)c5OCCC)C(C)(C)C)c4OCCC)N(=O)=O)c3OCCC)C(C)(C)C , P21/c ,1,0,1.16250439037,0.64442773644
1842, EVINOM01 , O=C1C=Cc2ccccc2C1=CNc1ccc(cc1)N(=O)=O , P21/c ,1,0,1.44356759966,0.7180608079199999
1843, QEVRIV , COC(=O)C1(CCCOC1=O)C(CN(=O)=O)C1=COC=C1 , P21 ,0,0,1.43321062588,0.6981253210070001
1844, IPIWIN , O=N(=O)c1ccccc1N1CCCN(CC1)c1ccccc1N(=O)=O , P-1 ,1,1,1.4499156492899998,0.7286224489800001