ID,name,smiles,space_group,inversion_symmetry,beta_packing,density,packing_coefficient
3705, YAHPII , O=C1CCC2=C1C(c1cccc(c1)N(=O)=O)c1ccc3ccccc3c1N2 , P21/c ,1,0,1.44828471569,0.7260962467479999
3706, OBUDAS , COc1ccccc1Oc1ncccc1N(=O)=O , P21/n ,0,0,1.4773983488999998,0.722531488979
3708, MUWZIP , CC1(C)CC([N+](=C1c1ccccc1)[O-])C(=NO)c1ccccc1 , P21/c ,1,0,1.25927960515,0.6811758055399999
3710, CIWVAH , O=N(=O)NC1=NON=C1N=[N+]([O-])C1=NON=C1NN(=O)=O , P212121 ,0,0,1.91464268979,0.735212414736
3711, DOJNAS , CN1C=C[N+](=C1C)[O-] , P21/n ,0,0,1.3468351568399999,0.7311522048360001
3712, COQBUF , CCOC(=O)C1(C2CCCC3ON=C(C23)C1c1ccccc1)C(=O)OCC , Pbca ,1,0,1.2715708718,0.689209236326
3713, AZIGAR , COC(=O)C1(C)OCC(C)(CO1)N(=O)=O , P21/c ,1,0,1.39285532804,0.676815233312
3714, SAQVAG , CC1CC=CC(=O)N1C(=O)c1ccc(cc1)N(=O)=O , P212121 ,0,0,1.38622296511,0.685420368465
3715, LUBDIX , CC1CCC2(OC1)OC1C=C3C4CCC5CC(CCC5(C)C4CC(=NO)C3(C)C1C2C)OC(C)=O , P212121 ,0,0,1.19634824982,0.651625457875
3716, RIGHUK08 , Cc1cccnc1Cc1ccc(cc1N(=O)=O)N(=O)=O , P21/c ,1,0,1.3930353886000002,0.677931264138
3717, TERVEU , Cc1ccc(OCCCCOc2ccc(C)cc2N(=O)=O)c(c1)N(=O)=O , P21/n ,0,0,1.28099136005,0.714137214137
3718, OGEWUS , CCOC(=O)N1C2CC(C=C2)N1C(=O)Nc1ccc(cc1)N(=O)=O , P-1 ,1,1,1.4389539871099999,0.702323733863
3719, IZINOU , CC1(C)N([O])C(=N([O])C1(C)C)C1=CN(N=C1)c1cccc(n1)N1C=C(C=N1)C1=N([O])C(C)(C)C(C)(C)N1[O] , C2/c ,1,1,1.3730985355599998,0.6995469862710001
3720, MFRCAH10 , CC1=N([O])ON=C1C(=O)NN , P-1 ,1,1,1.5837454544100003,0.709243697479
3721, LIHFIT , COc1ccc(CN2CC3CCCC(OC(=O)c4ccc(cc4)N(=O)=O)C2CN3Cc2ccccc2)cc1 , P-1 ,1,1,1.25222850288,0.658718316219
3722, LOLCOG , OC(C(N=Cc1cc(ccc1O)N(=O)=O)c1ccccc1)c1ccccc1 , P21 ,0,0,1.35474262988,0.690837212486
3723, TORTOJ , CN1C=C(C(=C1C1=CCCCC1)C=CC=Cc1ccccc1)N(=O)=O , C2/c ,1,0,1.2842149113099999,0.632114029562
3724, LILLEY , CC(=O)N1CC(CN1C(C)=O)(N(=O)=O)N(=O)=O , Pca21 ,0,0,1.5801477309,0.730822592195
3725, VEMTOW01 , O=C(Oc1ccccc1N(=O)=O)Oc1ccccc1N(=O)=O , P21/c ,1,0,1.5493362986,0.705748792271
3726, LUWFOA , CCOC(=O)C1NCC(C1c1ccccc1)C1=C(C(=NO1)C)N(=O)=O , P212121 ,0,0,1.4440428271799999,0.717640717641
3727, BOWJON , CC(N1CCC(C)(O)C(C1c1ccccc1)N(=O)=O)c1ccc(cc1)N(=O)=O , P21/c ,1,0,1.31429796003,0.6854618169169999
3728, RUGKAG01 , CN(C)c1ccc(cc1)C=C1C(=O)ON=C1C , P21/n ,0,0,1.28558800316,0.681285244361
3729, TIZXOR , CC(C)(C)[N+]([O-])=CC=[N+]([O-])C(C)(C)C , I4/m ,1,1,1.0844435891700002,0.643802157541
3730, TIMZAQ01 , O=C(NN=Cc1ccccc1N(=O)=O)c1ccncc1 , P21/c ,1,0,1.4299775635499998,0.6968347442030001
3731, ACOTIY , CCCCOc1cc(C#C)c(cc1OCCCC)N(=O)=O , P21/c ,1,1,1.2729107111799998,0.703409148991
3732, PANINO01 , COc1ccc(cc1)N(=O)c1ccc(OC)cc1 , Aba2 ,0,1,1.34165282505,0.715073155863
3733, GAKXAT , O=N(=O)c1cccc(C=NN2C=NN=C2)c1 , P21/c ,1,1,1.48727976558,0.703573667712
3734, OGUHIH , CC(C)OC(=O)C=Cc1cccn([O])c1 , I2/a ,0,0,1.28271539134,0.688437756498
3735, YIFXUJ , CC1(C)OCC(O1)C1C2OC(C)(C)OC2C=[N+]1[O-] , P212121 ,0,0,1.32068450468,0.688348069152
3736, AXEGAM , O=C1OC2C3CC(C=C3)C2C1Nc1ccc(cc1N(=O)=O)N(=O)=O , P-1 ,1,1,1.5713774779700003,0.739658119658
3737, JONYES , CC1=C(C(=NO1)C)c1cccc2C(=O)c3cccc(C)c3C(=O)c12 , P-1 ,1,1,1.35528783907,0.6905078672409999
3738, MACBEY , Nc1nc(Nc2ccccc2)c(N=O)c(OCc2ccccc2)n1 , P1 ,0,1,1.4454182462799998,0.725592320261
3739, JODRUQ , COc1cccc(C=NOCCCCCCON=Cc2cccc(OC)c2O)c1O , P21/n ,0,0,1.2753300162899999,0.6718925443520001
3740, YAWWEY , O=C(c1ccccc1)C(=NNc1cccc(c1)N(=O)=O)C(=O)c1ccccc1 , P21/n ,0,0,1.38598811178,0.697645691345
3741, GARMET , CCOc1cccc(C=Nc2ccc(cc2)C(C)=NO)c1O , P-1 ,1,1,1.3298656340600001,0.7012407143989999
3742, MOWNER01 , CC1(C)CC(CC(C)(C)N1[O])C(=O)OCCCCCCCCCCCOc1ccc(cc1)c1ccc(cc1)C#N , P-1 ,1,1,1.1485260417799998,0.661266813402
3744, YONTUR , Cc1cccc2CCCC(=C3C4C5CCC(C5)C4c4cc(ccc34)N(=O)=O)c12 , P21/c ,1,0,1.271839961,0.68662342216
3745, GOYFOP , COc1cccc(NC2=C(N=O)C(=O)CC(C)(C)C2)c1 , P-1 ,1,1,1.3274442796500001,0.7026952451340001
3746, SITPIW , O=N(=O)c1cnc(N2C=NC(=N2)N=[N+]=[N-])c(c1)N(=O)=O , P21/c ,1,0,1.71252221521,0.712334814308
3747, YACLOD , [O]N1=C2C(=NO1)C(=CC(=C2N1C(=O)Oc2ccccc12)N(=O)=O)N(=O)=O , P21/c ,1,0,1.67752768149,0.7046462455949999
3751, JENHEP , OC(=O)CCON=C1CCCC1 , P-1 ,1,1,1.2551119596,0.668942714341
3752, QAQPIH , CC1(C)C(=NOC1(C#N)N(=O)=O)C#N , P21/n ,0,0,1.4115089031499999,0.675108441775
3753, HNAFPY10 , CC(=O)C1=C(C)OC(=C1)C1OCC(O)C(C1O)N(=O)=O , P43212 ,0,0,1.4541773418900001,0.7162710143629999
3755, ROKRAK , CC(C)(C)c1cc2Cc3cc(cc(Cc4cc(cc(Cc5cc(cc(Cc(c1)c2O)c5OCCN=Cc1ccc(cc1)N(=O)=O)C(C)(C)C)c4O)C(C)(C)C)c3OCCN=Cc1ccc(cc1)N(=O)=O)C(C)(C)C , P-1 ,1,0,1.12867660543,0.618039211965
3756, PEHXIK , ON=CC1=NC=CN1 , P43 ,0,0,1.38171877409,0.665583452042
3757, CAJGEB , C=C1CCC2CCCCC32C1C(OCc1ccc(cc1)N(=O)=O)OC3=O , P21/c ,1,1,1.3037499282,0.6734213140340001
3758, HODKAN , CCC(CC)=NNc1ccc(cc1N(=O)=O)N(=O)=O , P21/c ,1,0,1.3562488525,0.665959722298
3759, IVEQOR , CCOC(=O)C1N=C(OC1c1ccc(cc1)N(=O)=O)c1ccc(cc1)N(=O)=O , P21/c ,1,0,1.50730535556,0.7156037829430001
3760, UJAWAE , CC(C)(OC(=O)c1ccc(cc1)N(=O)=O)C1CC2CCCC=C2C=C1 , P21/c ,1,0,1.2222716245999998,0.655994651612
3761, MENFXN , CC1=[N+]([O-])ON=C1N(=O)=O , P212121 ,0,0,1.6592255588799998,0.7065200617280001
3762, XUFFAH , CC(C)(C)C1CCCN(C1c1ccc2ccccc2c1)C(=O)c1ccc(cc1)N(=O)=O , P21/c ,1,0,1.28180637556,0.694348764418
3763, CUTXUL , CCC(C=O)C(CN(=O)=O)N1C(=O)c2ccccc2C1=O , P212121 ,0,0,1.3312629356899999,0.652174145299
3764, COMFER , O=N(=O)c1ccc(cc1)C(=CNc1ccccc1)C=Nc1ccccc1 , P21/c ,1,1,1.31523518756,0.6952441077439999
3765, DEMRIW , COC(=O)C1CCCC(CCC1=O)N(=O)=O , P21/c ,1,0,1.3643658843700002,0.697652880315
3766, HOKLUO , CC1=[N+]([O-])C23CCCCC2(C1)c1cccc(O)c1O3 , P-1 ,1,1,1.4025511204799999,0.7183932052349999
3767, YODMOT , CC(=O)OC1=N([O])COCC1(N(=O)=O)N(=O)=O , Pcab ,0,0,1.67719697025,0.721884808537
3768, OLIVEL , CCCC1CC2CCCC(C#N)(N2O1)c1ccccc1 , Pbca ,1,0,1.13149049205,0.635999288376
3769, JADYIW , Cc1cccc2c1NC1C3CCC[N+]3([O-])CCC1C2(C)C , Pbca ,1,0,1.21864539624,0.690039255897
3770, XUPYEN , COc1ccc(cc1)C1=NOC(c2ccccc2)C21C(=O)N(c1ccccc1)C(=O)c1ccccc21 , P21/c ,1,0,1.3355667575499999,0.682560103964
3771, AHIVEU , COc1ccc(c2c(OC)cccc12)N(=O)=O , P21/n ,0,0,1.478401875,0.7370058512919999
3772, MAFWIC , CNc1ccccc1C1=C(c2ccccc2)C(=NO1)c1ccc(OC)cc1 , P-1 ,1,1,1.2906295290799998,0.6907276897069999
3773, SEPSEO , OC(C1CC2(CN(OC2c2ccccc2)c2ccccc2)N(O1)c1ccccc1)(c1ccccc1)c1ccccc1 , P-1 ,1,1,1.29902842935,0.691460084827
3775, EFAXAN , NC1=C(N=NC2=NC(=NN12)C#N)N(=O)=O , P21/c ,1,0,1.80432577221,0.7558346805949999
3777, BUGPEZ , O1N=C2N=C3c4cccnc4c4ncccc4C3=NC2=N1 , P21/c ,1,1,1.60200931674,0.727244193346
3778, MOVHIP , CN1C(OC(C#N)(C#N)C1c1ccccc1)c1ccc(cc1)N(=O)=O , P21/n ,0,0,1.34782431442,0.6818308992219999
3779, QOZYUB , CN1C(=O)C(C)(CCC2ON=C(c3ccc(cc3)C#N)C2(C)C)c2ccccc12 , P-1 ,1,1,1.21707067771,0.659817732211
3780, WAGZIO , COC1CCCC(O1)C(OC(=O)c1ccc(cc1)N(=O)=O)C1=CCCCC1 , P21/c ,1,1,1.31087770229,0.684817914326
3782, CATJUC , CC1ON=C(C1C)C(O)C1COC(C)(C)O1 , P212121 ,0,0,1.25455430494,0.680198449138
3783, YAZZEH , CN1CC(C(N(=O)=O)C21c1ccccc1c1nc3ccccc3nc21)c1ccccc1 , P21/n ,0,0,1.3264161351600001,0.669826524562
3784, AFOPUI , Cc1c(cccc1N(=O)=O)N=Cc1cc(ccc1O)N(=O)=O , P21/c ,1,1,1.4697134754499999,0.697741735395
3785, CEGROX , CCN(CC)c1ccc(N=Nc2c(cc(cc2N(=O)=O)N(=O)=O)C#N)c(NC(C)=O)c1 , P21/c ,1,0,1.4172833195200003,0.721247502498
3786, YASSIV , CCCC1=NNC(=O)N1O , C2/c ,1,0,1.38272046466,0.683198912948
3787, PEHQEB , COc1ccc(cc1)N1CCCC(CO)C1c1ccc(cc1)N(=O)=O , P212121 ,0,0,1.26903167023,0.660650483396
3788, HOLXOX , CC(=O)N1OC2CCCC=C2CCC1O , P21/c ,1,0,1.2955440364700002,0.6961873638339999
3790, HNBZPP , O=N(=O)c1ccc2OC3OCCCC3Cc2c1 , P21/c ,1,0,1.39890160103,0.7198696205220001
3791, XOWNEE , CON1C(=O)Cc2ccccc2C1=O , P21/c ,1,0,1.4387461183599999,0.7198894367759999
3792, RIRMAH02 , Nc1ccc(cc1N)N(=O)=O , P212121 ,0,0,1.58400271482,0.7657378740970001
3793, JUPROB , CNc1c(cc(cc1N(=O)=O)N(=O)=O)N(=O)=O , P21/n ,0,0,1.6429850687600003,0.711515151515
3794, HIHHAH01 , CC(=O)c1cccc(c1)N(=O)=O , P21/n ,0,1,1.4332892441999998,0.7201401401399999
3797, AQURUB , CC1=CN2C=C(C=CC2=N1)N(=O)=O , R-3 ,1,0,1.50941757293,0.731623603486
3798, KOVHIM , O=N(=O)C(=C1NCCCCN1)N(=O)=O , Pbca ,1,0,1.5649975261700002,0.730362638833
3799, CATJIQ01 , O=N(=O)N1CC(CN(CC(C1)(N(=O)=O)N(=O)=O)N(=O)=O)(N(=O)=O)N(=O)=O , Pbca ,1,0,1.8704994759400002,0.735523449146
3800, QUZQUY , CCCCCCCCCC(=O)NCC[N+](C)(C)[O-] , P-1 ,1,1,1.12736776605,0.69643681622
3801, LAPTIG , COc1ccc(cc1)C1C2COCCN2OC1C(=O)N1CCCCC1 , C2/c ,1,0,1.3265663066700002,0.702071664755
3802, FUBDUC , CC1C2CCC(C)(C(C1=O)c1ccccc1)N2C(=O)c1ccc(cc1)N(=O)=O , P21 ,0,0,1.32116463733,0.686200991302
3803, EDAMOO , CCCNC=C(c1ccc(C)cc1)N(=O)=O , Pna21 ,0,0,1.25028033718,0.690311599895
3804, HABRUX , CC1=CC(=NO1)C(=O)Nc1c(C)cccc1C , P1121/a ,0,0,1.28380400028,0.6894874961409999
3805, HALSIW , CC1=CC(=NO1)NC(=O)c1c(C)cccc1C , P21/n ,0,0,1.2251052406,0.660856620405
3806, KOSNUB , CC(C)(C)C(=O)ON=C1C=C(c2ccccc2)C2(C1C1C(=NOC(=O)C(C)(C)C)C2C(=C1c1ccccc1)c1ccccc1)c1ccccc1 , P21/c ,1,0,1.1849457914700001,0.6470195342180001
3807, PUJLIR , CCOC(=O)C1=CC(=NN1)C(=O)c1ccc(cc1)N(=O)=O , Pbca ,1,0,1.41115504035,0.6701152237479999
3808, SUGFOP , OC(C(O)C(N(=O)=O)N(=O)=O)C(N(=O)=O)N(=O)=O , P1121/n ,0,0,1.81760553838,0.731437451437
3810, JUHFUN , CN1CC2(CN(C)CC(C1)(C2)N(=O)=O)N(=O)=O , Pnam ,0,0,1.5389798834000001,0.656629660662
3811, GUPWEV , CON1C(=O)C2(CC3C4COC2CC4C2=C(C)C=C(N32)C(C)=O)c2ccccc12 , P21 ,0,0,1.29818651909,0.663028492647
3812, EVEXAE02 , COc1ccc(cc1)C(=O)C=C(O)c1cccc(c1)N(=O)=O , P21/n ,0,1,1.40518562919,0.6954373728569999
3813, NUNLOX , CCCOc1c2Cc3cc(cc(Cc4cc(cc(Cc5cc(cc(Cc1cc(c2)N1C(=O)c2ccccc2C1=O)c5OCCC)N(=O)=O)c4OCCC)N1C(=O)c2ccccc2C1=O)c3OCCC)N(=O)=O , C2/c ,1,1,1.3101234070899999,0.671107972379
3814, GUFPOM , CC1(C)CC(CC(C)(C)N1[O])N=Cc1ccc2ccccc2c1 , Pna21 ,0,1,1.1891362394399998,0.6726024689579999
3815, MIQSEL , COC1CC(OC(=O)c2cc(cc(c2)N(=O)=O)N(=O)=O)C(O)(C(C)O1)C(C)OC(=O)c1cc(cc(c1)N(=O)=O)N(=O)=O , P3221 ,0,0,1.50354083209,0.687624002775
3816, ADAVIL , CCOc1ccc(cc1)N=CC=Cc1ccccc1N(=O)=O , P-1 ,1,1,1.30651165356,0.6841076776970001
3817, BOMJAO , CCOC(=O)C1=C(N2C=C(C)C=CC2=N1)N(=O)=O , P-1 ,1,1,1.41342873426,0.674607513864
3818, NOLFUQ , COC(=O)C(C)C(O)c1ccc(cc1)N(=O)=O , P21/n ,0,0,1.3571148755700002,0.6772672371699999
3819, VAMSEH , CC1=CCC(CCCC=CC(C)(C)C1)OC(=O)c1ccc(cc1)N(=O)=O , Pbca ,1,0,1.2388260926999999,0.68114955615
3820, LIXRIT , O=C1C(=CNc2ccccc2)C=CC=C1N(=O)=O , Pccn ,1,0,1.4040587983500001,0.693681917211
3823, OFIXEJ , COC(=O)c1ccc(cc1)N(C(N)=O)c1ccccc1N(=O)=O , P-1 ,1,1,1.3933937849899998,0.667504608681
3824, ABULIT01 , COc1cccc(C=NO)c1O , Pbca ,1,0,1.4137554700600001,0.713220815752
3825, GOJYEL , CCOC(=O)C1=CC(C=C(C)C)C(C(C1)N(=O)=O)C(NC(C)=O)C(C)C , P21 ,0,0,1.21465163109,0.6744119935359999
3828, FEKMOZ , CC(=NO)C1(CC1c1ccccc1)C#Cc1ccccc1 , P-1 ,1,1,1.21019050516,0.672812306741
3831, PUKGIN , C=C=COc1ccc(cc1)N(=O)=O , P21/c ,1,0,1.46162810016,0.7402933563420001
3832, JABBIA , CC1=NON=C1C1=NN(N)C=C1N(=O)=O , P-1 ,1,1,1.6315837469799999,0.7253328356350001
3833, EWUMAK , ON=C1C(CCC=C1c1ccccc1)c1ccccc1 , P21/c ,1,1,1.2180889585299999,0.669128211629
3834, IDODEK , CCOC(=O)C1(CCCC1C=CC(C)ON1C(C)(C)CCCC1(C)C)C(=O)OCC , P-1 ,1,1,1.1579342561200001,0.662765957447
3835, DEMMIR , CC1(C)CC2C1CCC(C)(N=O)C(CCC2=C)N(=O)=O , P212121 ,0,1,1.15982305045,0.675248617705
3837, RULHIR , CCOC(=O)C1=NOC2CC(=O)C=CC2(O)C1 , P21/c ,1,0,1.4398845956,0.715724137931
3839, RELQIJ , CC(C)(C)NC(=O)Cc1cccc(CC(=O)NC(C)(C)C)n1[O] , P-1 ,1,1,1.15275875384,0.649379432624
3840, TATNBZ , Nc1c(c(N)c(c(N)c1N(=O)=O)N(=O)=O)N(=O)=O , P-1 ,1,1,1.93736476137,0.772238725358
3841, EKAHIJ , O=N(=O)c1ccc(cc1)C1=NOC2(C3CCCCC3ON12)c1ccc(cc1)N(=O)=O , P-1 ,1,1,1.43279666841,0.689265536723
3842, SAHCAH , COC(=O)COc1ccccc1C1=N([O])C(C)(C)C(C)(C)N1[O] , P21/c ,1,0,1.2859391056,0.667551564103
3843, YIHJEE , CCCCCCC(N1C=NC(=C1)N(=O)=O)C(=O)N1CC(CC1C(=O)OC)Oc1ccccc1 , P212121 ,0,0,1.23415450844,0.637227864633
3844, PABGAA , COC(=O)CCc1cc(OC)c(cc1C=CC(=O)OC)N(=O)=O , P-1 ,1,0,1.43328032738,0.7015168128650001
3846, WACVOM , CC1(C)N(=C(C2=CNC=C2)N(=O)C1(C)C)[O] , Pbca ,1,0,1.21756467987,0.651869591596
3847, HUMHEC , CC(=NNc1ccc(cc1N(=O)=O)N(=O)=O)c1ccccc1 , P21/c ,1,0,1.45642659127,0.703537866224
3848, JUVMUI , O=N(=O)C1(CC2CC(CC2C1)(N(=O)=O)N(=O)=O)N(=O)=O , Pc ,0,1,1.6371085497799998,0.677404503841
3850, SOKGUU , OCC1OC(CN(=O)=O)C(O)C(O)C1O , P212121 ,0,0,1.57904194289,0.7330726452609999
3851, BEQPIX , Cc1nc[n+]([O-])c(C)c1C(=O)N1CCC(C)(CC1)N1CCC(CC1)N(c1ccccc1)c1ccccc1 , P-1 ,1,0,1.26483469262,0.703986150374
3853, PANDEO , COC(=O)C1(CC(C2OC(C)OCC2O)N(Cc2ccccc2)O1)C(O)c1ccccc1 , P21 ,0,0,1.34565388804,0.691737709577
3854, DUDNOH , CCOC(=O)C1=CN(N=N1)c1ccc(cn1)N(=O)=O , P-1 ,1,1,1.49365336609,0.6993265993269999
3855, EXPCIZ , CCC1=C(c2ccccc2)C2(ON=C(c3c(C)cc(C)cc3C)C2(CC)C1=O)c1ccccc1 , P21/n ,0,1,1.18017162569,0.6626953484100001
3856, YAGQUT , CC(=O)OCC1OC(C(OC(C)=O)C(OC(C)=O)C1OC(C)=O)C1=NOC(C1)C1OC2OC(C)(C)OC2C1OC(C)=O , P21 ,0,0,1.3528876439300002,0.664602291877
3858, PUYPOQ , CC(=O)Oc1cc(C)cc(OC(C)=O)c1N([O])=Nc1ccc(C)cc1 , P21/c ,1,0,1.29299033064,0.6635515248839999
3859, EQIKOF , CC1(CO1)C1CC(=NN1c1ccccc1)c1ccc(cc1)N(=O)=O , P-1 ,1,1,1.3907574307,0.71303030303
3863, ABATOO , CC(C)(C)c1ccc(O)c(C=NO)c1 , P212121 ,0,0,1.20335063778,0.6688856771630001
3864, CUDDAG , CN1C2C3N(C4C(N(C)c5ccccc5N24)C3(C)N(=O)=O)c2ccccc12 , P21/c ,1,0,1.35898879537,0.699863702189
3865, COSQOS , COC(=O)CC(C(Cc1ccccc1)NC(=O)OC(C)(C)C)N1N=[N+]([O-])c2ccccc12 , P212121 ,0,0,1.24408156569,0.650824358463
3868, COYZEX , NC1=NN2N=NN=C2N=[N+]1[O-] , P21/n ,0,0,1.872615815,0.734046639232
3869, EDASOR , O=N(=O)c1ccccc1NN=Nc1ccccc1C#N , P-1 ,1,1,1.39724359685,0.6823952197669999
3870, GODXAY , CC(=O)Oc1ccc2cc(ccc2c1c1c(OC(C)=O)ccc2cc(ccc12)N(=O)=O)N(=O)=O , Ia ,0,0,1.43972682289,0.686070656092
3873, ADAXIN , Cc1cccc(C(=O)Nc2ccccc2NC(=O)c2cccc(C)c2N(=O)=O)c1N(=O)=O , P-1 ,1,1,1.41010255925,0.6810776359990001
3874, NEKSIF , Cc1cc2NC(=Nc2cc1C)N([O])C(C)(C)C , P-1 ,1,1,1.20004074462,0.65433646813
3876, VAWFII , O=C1c2cccc(c2c2ccc(cc12)N(=O)=O)N(=O)=O , P1121/n ,0,0,1.60680130491,0.705896298776
3877, QAJWUV , COC(=O)C=CC(=O)Nc1ccc(cc1)N(=O)=O , P-1 ,1,1,1.47753932791,0.714041514042
3878, NEPTIM , OC1C2OCC3ON(Cc4ccccc4)C(C2O)C13 , P212121 ,0,0,1.37581186736,0.6934779495990001
3879, JIRHEY , CCN1C(ON=C2CC(C)(C)N([O])C(C)(C)C2)C(=NC(=C1C#N)C#N)c1ccccc1 , P21/n ,0,0,1.23662249175,0.659614868492
3880, KEHTEZ , C=CCN1N=Cc2cc(ccc12)N(=O)=O , P212121 ,0,0,1.3602776703900001,0.7142310395999999
3881, FIHMIT , COc1cc(c(cc1OC)N(=O)=O)N(=O)=O , P21/n ,0,0,1.57763202806,0.726695945477
3882, YOWXAK01 , CC1(C)N([O])C(=N([O])C1(C)C)c1ccccn1[O] , P21/n ,0,0,1.2887694788700002,0.670625
3883, HALJUZ02 , CC(C)c1cc(C(C)C)c(c(c1)C(C)C)N(=O)=O , C2/c ,1,0,1.0242030262700001,0.665386256936
3884, OMEKEX , Cc1cccc(c1)C1OC2(C)ON=C(C)C12C , P21/c ,1,0,1.22667965687,0.677485946889
3885, EFADOG , O=C(C1C(C(C1c1cccc(c1)N(=O)=O)C(=O)c1ccccc1)c1cccc(c1)N(=O)=O)c1ccccc1 , P21/c ,1,0,1.41730121616,0.7146888267579999
3886, QUNRIC , CN1C(=O)C(C(=O)N(C)C1=O)c1ccc(cc1N(=O)=O)N(=O)=O , P212121 ,0,0,1.55345165218,0.698024716716
3887, VIFBAN , O=C(OC(=O)c1cccc(c1)N(=O)=O)c1cccc(c1)N(=O)=O , Pbca ,1,0,1.53811046172,0.711958525346
3888, AMEVOF , CCCCCCNC(=O)Nc1ccc(cc1)N(=O)=O , P21 ,0,0,1.35109003538,0.725916666667
3889, SIYZAB , COC1OC(COC(=O)c2ccccc2)C(=O)C(OC(=O)c2ccccc2)C1N(OCC1OC2OC(C)(C)OC2C2OC(C)(C)OC12)C(C)=O , P21 ,0,0,1.32852367264,0.6917734477040001
3890, ROXKEW , CN1CCN(CC1)c1ccc(c(c1)N1Cc2ccccc2C1)N(=O)=O , P21/c ,1,0,1.3425773288499998,0.7048158316169999
3891, UYURUD , O=N(=O)C12CN(CC1C=CC1CN(Cc3ccccc3)CC21N(=O)=O)Cc1ccccc1 , Pc21n ,0,0,1.32484578798,0.6776767749349999
3892, LIQKAZ , None , P21/c ,1,0,1.2434957718700002,0.6810036945810001
3893, YAVNUH , CC1=NOCCc2ccccc2Nc2cc(ccc12)N(=O)=O , P21/n ,0,1,1.40159958536,0.7101313320829999
3894, JEGVEZ , CON1C(CC(C)(C)C1=O)C(NC(=O)OC(C)(C)C)c1ccccc1 , P21/c ,1,0,1.2099824723100001,0.670798319328
3895, YORKEW , CCCCOc1ccc(cc1)C(=O)Oc1ccc(cc1)N(=O)=O , P21/c ,1,0,1.34494522098,0.684995873987
3896, MEJDOX , O=C1NC2C(N1)N(Cc1ccc(cc1)N(=O)=O)C(=O)N2Cc1ccc(cc1)N(=O)=O , P-1 ,1,1,0.736087284118,0.347304898491
3897, IJURAG , CCOC(=O)C1CC2(N(O1)c1ccccc1C2=Nc1ccccc1)c1ccccc1 , P21/n ,0,0,1.25059657896,0.649016998626
3898, WEHJOJ01 , CCN1C=C(C=N1)C1=[N+]([O-])C(C)(C)C(C)(C)N1[O] , P21/c ,1,0,1.18245136125,0.630014630015
3900, ZUMJAU , CC(C)CNC(=O)C(ONC(=O)C1(CC1)ONC(=O)C(ONC(=O)C(C)C)C(C)C)C(C)C , P41212 ,0,1,1.15620942108,0.627587465918
3901, IKAZEA , O=C1CCCN1C1CC(Nc2cccc(C3=NOC(=C3)c3ccccc3)c12)c1ccc(cc1)N(=O)=O , P61 ,0,0,1.2287499616,0.615616626661
3903, NUBTUA , COC(=O)C1(C)ON2OC(C=C(C)C)C34CCC1C2C13CCC(C4)OC1=O , P21/n ,0,0,1.37026292731,0.735207860922
3904, BAKLII , Nc1c(c(N)c(c(O)c1N(=O)=O)N(=O)=O)N(=O)=O , P212121 ,0,0,1.8904253557599997,0.767675213675
3906, MEJFAL , COCN1C2C(N(COC)C1=O)N(Cc1ccc(cc1)N(=O)=O)C(=O)N2Cc1ccc(cc1)N(=O)=O , P21/c ,1,0,1.49713118736,0.7269869215289999
3907, OYEKUZ , CCOC(=O)C1=NOC(=C1)C1=N([O])C(C)(C)C(C)(C)N1[O] , P21/n ,0,0,1.3295840980299998,0.664803299625
3908, AYALOC , O=N(=O)OCC12C3C4C1C1C2C3C41CON(=O)=O , Cmca ,1,1,1.5118418194799998,0.70544194404
3910, TUXNIL , CCC(C)Oc1c(NC(=O)c2cccc(c2OCc2ccccc2)N(=O)=O)cccc1C(=O)Nc1ccccc1OCc1ccccc1 , P21/c ,1,0,1.32113013486,0.708003766478
3911, BEVCEM , O=N(=O)c1ccc(cc1)N1C=C(N=N1)c1ccccn1 , P-1 ,1,1,1.51709939307,0.722025557982
3915, QAWZOE , OCC(O)CNc1ccccc1N(=O)=O , I222 ,0,1,1.4249974496200002,0.693068213201
3917, XESCEG , Cc1ccc(cc1)C(=N)C(ON1C(C)(C)CCCC1(C)C)N(=O)=O , P21/c ,1,0,1.19302651737,0.655003613904
3919, KIZDAA , NC(=O)OCC(N(=O)=O)(N(=O)=O)N(=O)=O , P21/c ,1,0,1.8390279386900001,0.736932400932
3920, XAZCEI , OCc1ccc(cc1)N(=O)=O , P-1 ,1,1,1.52113154537,0.7542172739540001
3921, IYAYIQ , COC(=O)C(=C)C(O)c1ccc(cc1)N(=O)=O , P-1 ,1,1,1.4264335240700001,0.7134457468809999
3924, SANREG , O=C1Oc2ccccc2C(CN(=O)=O)C21CCc1ccccc1C2=O , P212121 ,0,0,1.3882147504799998,0.681929914823
3925, YILLEM , NC(=NO)C1=Nc2ccccc2C(=O)N1 , P21/c ,1,0,1.51289518385,0.710949941148
3927, VEZTUQ , O=N(=O)c1ccc(cc1)C=Cc1c2ccccc2cc2ccccc12 , P21/c ,1,1,1.3295892661,0.692682926829
3928, YOZBOG , CC1(C)C(Cc2nc3ccccc3c3ccccc23)ON=C1c1ccccc1 , I2/c ,0,0,1.2722001398799998,0.681832201726
3929, KIJDAJ , CC1ON(C(C1CNC(C)c1ccccc1)c1ccccc1)c1ccccc1 , P212121 ,0,0,1.21408241403,0.690906732589
3930, SETVOD , Cc1cc(C)c(NN(=O)=O)c(C)c1 , Pbca ,1,0,1.21025933778,0.662030956848
3931, VUQDOB , CCOC1=C(N=CN1CC(O)COc1ccc(cc1)C(C)=O)N(=O)=O , Pbca ,1,0,1.38350116667,0.6871559956309999
3932, GAKNUB , [O]N(=NCCCCCCN=N([O])c1ccccc1)c1ccccc1 , Pbca ,1,1,1.21751784802,0.6714040676299999
3933, MAJTIB , O=C1NC(=O)c2cc(ccc12)N(=O)=O , P212121 ,0,0,1.7160194397,0.763482058254
3935, YAJXOX , CNc1ncnc(N)c1N=O , Pca21 ,0,0,1.55349714243,0.742218875502
3936, SEFNIA , O(N1N=NC(=C1c1ccccc1)c1ccccc1)C(c1ccccc1)(c1ccccc1)c1ccccc1 , P21/n ,0,0,1.30428103996,0.7022154929209999
3937, JULGUS , CC(=NN=C(C)c1ccccc1N(=O)=O)c1ccccc1N(=O)=O , P21/n ,0,1,1.3653755719100003,0.677359208524
3938, CUKCAM15 , OC(=O)c1cc(cc(c1)N(=O)=O)N(=O)=O , C2/c ,1,0,1.73495087488,0.748290225181
3939, BOVYOB , CC1(C)C2CCC3(C)C(C(=O)C=C4C5CC(C)(CCC5(C)CCC34C)C(O)=O)C2(C)CC2=NON=C12 , P212121 ,0,0,1.21994123527,0.667732011373
3940, TIWWUS , CC(=O)OC1CCC2(C)C3CCC4(C)C(CC(C4C(C)=O)C4=NOC(=C4)COC4C(OC5OC(C)(C)OC45)C4COC(C)(C)O4)C3CC=C2C1 , P21 ,0,0,1.23432157907,0.650961647889
3942, AFOPAM , Oc1ccc(cc1C=NC1CCCCC1[NH+]=Cc1cc(ccc1[O-])N(=O)=O)N(=O)=O , P21/n ,0,0,1.4024192573899998,0.6931884057969999
3943, XEDVUA , CON=C(c1ccccc1)c1ccccc1OC , P21/c ,1,0,1.26539080675,0.697247596154
3945, LEZZUN , CCOC(=O)C1C2C(ON1c1ccc(cc1)N(=O)=O)C(=O)N(C2=O)c1ccccc1 , P21/c ,1,0,1.4308322871999999,0.685220967103