ID,name,smiles,space_group,inversion_symmetry,beta_packing,density,packing_coefficient
1170, OMEKIB , NC(=O)C1=C(ON=C1N)C1=CC2=C(CCCC2)N1 , P21/c ,1,0,1.47882228037,0.742004264392
1171, OVUZEL , COc1cc(C=NNc2ccc(cc2)N(=O)=O)cc(OC)c1OC , Pn ,0,0,1.4199893890000002,0.714131106988
1173, GORRUC , CCOC(=O)CC1C(C=CC(=O)OC)C(C(C1C1(C(=O)N(C(=O)OC(C)(C)C)c2ccccc12)c1ccccc1)N(=O)=O)c1ccccc1 , P212121 ,0,0,1.29829500645,0.680961277174
1174, MUZCEP , CCOc1cc2c3cc(OCC)c(OCC)cc3c3c(cc(OCC)c(OCC)c3N(=O)=O)c2cc1OCC , P-1 ,1,1,1.33554806062,0.6978621834790001
1177, FIXMEE , CC(=O)OCC(OC(C)=O)C(OC(C)=O)C(OC(C)=O)C(OC(C)=O)C1C(OC2=C1C(=O)CC(C)(C)C2)=NO , P212121 ,0,0,1.29923352052,0.65608607274
1178, EWOXAP , [O-]C1=C[N+](=NO1)c1ccccc1c1ccccc1 , P21/n ,0,0,1.40830299616,0.7143511250650001
1179, HAMKUD , CC(C)(C)c1ccc(cc1)C1=NC(=NO1)Nc1cccc2ccccc12 , P21/c ,1,0,1.27387724805,0.685370433595
1180, POYHES , O=C([N-][N+]1=C(N(Cc2ccccc2)C=C1)c1ccc(cc1)N(=O)=O)c1ccccc1 , P21/n ,0,0,1.42145689167,0.7217521154800001
1181, QOVMIX , COC1CC(=O)CC(C2COC(C)(C)O2)C1N(=O)=O , P212121 ,0,0,1.2912841178799999,0.652664026137
1182, MNPYDO06 , Cc1cn([O])ccc1N(=O)=O , P212121 ,0,0,1.5515588583500002,0.7396179596420001
1183, IMICUE , COc1ccc(c(N)c1)N(=O)=O , P-1 ,1,1,1.54959579396,0.739642857143
1184, PHTGLY , ONC(=O)CN1C(=O)c2ccccc2C1=O , P21/c ,1,0,1.5141689061,0.7103817235400001
1185, KAXWEM , CCOC(=O)C1=NOC(CC(NC(=O)OC(C)(C)C)C(=O)OC)C1 , Pbca ,1,1,1.27396395686,0.6644215729140001
1187, BAQNAI , CCOC(=O)C(=Cc1ccccc1N(=O)=O)C(C)=O , P21/c ,1,1,1.3367041798200001,0.677356725146
1188, MAYDIB , CC(=O)CCC1(CCC(CCC(C)=O)(CC1)N(=O)=O)N(=O)=O , P-1 ,1,1,1.3510228871899999,0.6998552522750001
1189, QEXYOI , Cc1ccc2N=C(C3OC(C(N3c2c1)c1ccc(cc1)N(=O)=O)c1ccc(cc1)N(=O)=O)c1ccccc1 , Pbcn ,1,0,1.32478679121,0.653717182019
1190, ITINAA , O=N(=O)c1ccc(NN=C(CN=[N+]=[N-])CN=[N+]=[N-])c(c1)N(=O)=O , P-1 ,1,1,1.5747181374,0.704505165352
1192, QONMUC , [O]N(c1ccc(cc1)N(=O)=O)=N([O])c1ccc(cc1)N(=O)=O , Pca21 ,0,0,1.6444472725,0.747553961284
1193, METNAM04 , CN(C)N(=O)=O , P21/m ,0,1,1.36165193086,0.692733789508
1194, BAFMIG , CC(C)C1=NOC(C1)C(C)(O)C1CCC2(O)C3=CC(=O)C4CC5OC(C)(C)OC5CC4(C)C3CCC12C , P212121 ,0,0,1.2206673665799999,0.677595628415
1196, JIMHIX , CC1(CC1)C1(CC1)C1(CC1)OC(=O)c1cc(cc(c1)N(=O)=O)N(=O)=O , P212121 ,0,0,1.37661870306,0.6980115305519999
1198, MAJTEX , O=C1NC(=O)c2c1cccc2N(=O)=O , Pbca ,1,0,1.7049536947400001,0.757349000206
1199, UTOSAZ , CC(C)C(=NO)c1ccccc1 , I41/a ,1,0,1.1104818948200001,0.6353569254429999
1200, XAKLOL , CN(C)CCN(Cc1c2ccccc2cc2ccccc12)c1ccc(cc1)N(=O)=O , P21/c ,1,0,1.31943994124,0.709358920873
1202, DOXROX02 , CC1(C)C2CCC1(C)C(=O)C2=NO , P212121 ,0,1,1.18143974088,0.571546052632
1203, DOHCUY10 , Cc1c(C)c(c(c(c1C)N(=O)=O)C(C)(C)C)N(=O)=O , P21/n ,0,0,1.26664850926,0.6711153573399999
1204, KABNEI , O=N(=O)c1cc(c(C=Cc2ccc(cc2)C#N)c(c1)N(=O)=O)N(=O)=O , P21/c ,1,1,1.5382655413600002,0.706352755771
1205, TMEAMO , C[N+](C)(C)[O-] , C2/m ,1,1,1.11636912138,0.703757027286
1206, MUXGIX , NC1=NN=C(O1)C1=NON=C1N , P21/c ,1,0,1.68682212351,0.7148719336220001
1208, YELPUD , CCOC(=O)C(=O)C1=C(ON=C1)c1ccc(cc1)N(=O)=O , P21/c ,1,0,1.48674959527,0.697426878934
1210, IKANUE , O=C(NN(=O)=O)C1=CC=CN1 , Pbca ,1,0,1.6660524571200002,0.757651515152
1211, JAZLAX , O=CC=Cc1ccc(cc1)N(=O)=O , P21 ,0,0,1.37372831509,0.693438365651
1212, MAPZOT , [O]N1C2=C(C=CC1(c1ccccc1)c1ccccc1)c1ccccc1C=C2 , P21/c ,1,1,1.26859351781,0.675513639799
1213, DICPUA01 , [O-][N+]1=C(C=NO1)c1ccccc1 , P-1 ,1,1,1.42218994433,0.6944078465819999
1214, GOWKOU , CCOC(=O)C(=CNc1cccc(c1)N(=O)=O)C(O)=O , P21/c ,1,0,1.45998521761,0.697122704881
1215, PONTIW , COc1ccccc1C=NNc1ccc(cc1N(=O)=O)N(=O)=O , P-1 ,1,1,1.5048307719299998,0.720095501786
1216, INODUK01 , OC(=O)c1ccccc1C(=O)Nc1ccc(cc1)N(=O)=O , P212121 ,0,0,1.38010408928,0.6546369154680001
1217, CXMPYO , Cc1cccc(C(O)=O)n1[O] , Pbnm ,0,1,1.4798200624700002,0.718371347113
1218, CENCAA , CC1(CCC=N1[O])C(=O)OCc1ccccc1 , P21/c ,1,0,1.30007802321,0.6984954298039999
1219, TAYNIS , COC(=O)C1=C(NC2CCCCC2)C=C(C)CC1c1ccc(cc1)N(=O)=O , Pbca ,1,0,1.22615152855,0.651686537467
1220, KAYVAH , O=N(=O)c1ccc(c(c1)N(=O)=O)n1cccn1 , Pbca ,1,0,1.5397539067100001,0.7015895061730001
1221, GEQZUX , CC1(C)CC(CC(C)(C)N1[O])OC(=O)C=Cc1ccc(C=CC(=O)OC2CC(C)(C)N([O])C(C)(C)C2)cc1 , P21/a ,0,1,1.1724761618600001,0.647342088806
1222, OFEBEG , CCN(CC)C(=O)C(=Cc1cc(OC(C)=O)c(OC(C)=O)c(c1)N(=O)=O)C#N , P21/c ,1,0,1.3486431672299999,0.669383958858
1223, LOHXOW , O=N(=O)c1cccc(C=Nc2ccccc2)c1 , P212121 ,0,0,1.3609805468599998,0.7100519723469999
1224, ROHGEC , OC(C1CCCC1)C1CCCC1OC(=O)c1ccc(cc1)N(=O)=O , C2/c ,1,0,1.32557374669,0.7009958059
1226, IDIBEE , CN(C)c1ccc(cc1)C=C1C(=O)ON=C1c1ccccc1 , Cc ,0,0,1.3362528897700001,0.7151533897589999
1227, ROVMAS , O=CC1=CC=C(O1)C(OC(=O)c1cc(cc(c1)N(=O)=O)N(=O)=O)C(N1CCOCC1)C1=CC=C(COC(=O)c2cc(cc(c2)N(=O)=O)N(=O)=O)O1 , P21 ,0,0,1.5046033888400001,0.6855513705799999
1228, LOFMUO , COC(=O)C1=C(C)C(=C(C)NC1c1ccccc1N(=O)=O)C(=O)OC , Pna21 ,0,0,1.3676601441,0.683431432432
1229, VUWRIO , CC1(C)C2CCC1(O)C(=O)C1C(C2)C2(C)CCCC(OC(=O)c3cc(cc(c3)N(=O)=O)N(=O)=O)C12 , P212121 ,0,0,1.35426546341,0.682343712922
1230, JACKUU , O=C(NC1CCCC(Cc2ccccc2)NC1c1ccccc1)c1cc(cc(c1)N(=O)=O)N(=O)=O , P21 ,0,0,1.29708312889,0.665315683796
1232, JETSAF , COc1nn([O])c(c(OC)c1N(=O)=O)N(=O)=O , Pbcn ,1,0,1.63640774191,0.696160823655
1234, AWUYUN , COc1ccc(cc1)C1CC(=NO1)c1ccc(OC)cc1 , Pbca ,1,0,1.30508334795,0.6908785410799999
1235, DIXDUJ , CC(=O)Nc1ccccc1N(=O)=O , P21/n ,0,0,1.4378070664200002,0.70496969697
1236, PAMHOB , O=C(OCC(OC(=O)c1ccc(cc1)N(=O)=O)C1OC2(OC1COC12CCCCO1)c1ccccc1)c1ccc(cc1)N(=O)=O , P-1 ,1,1,1.3846741716799997,0.662543210582
1237, RAPZUG , O=N(=O)c1ccc2CCCC3=NOc1c23 , Pca21 ,0,0,1.5302230170700002,0.7332264957260001
1238, TITZOM , CC(N1CCC(=NO)C2(C1)ON(C(C2c1ccc(C)cc1)c1ccccc1)c1ccccc1)c1ccccc1 , P212121 ,0,0,1.1733400139399999,0.635912493944
1239, RAQSEI , CCOC1=CC(C2=CC=CO2)C2(C(C1)C1=[N+]([O-])ON=C1C1=[N+]([O-])ON=C21)N(=O)=O , P-1 ,1,1,1.56628208442,0.6971797979800001
1240, VITBAC , CN1N=NC(=N1)NN(=O)=O , P21/c ,1,0,1.6670347625400002,0.713203140529
1242, EJEYID , CN1C=NC(=C1N=C(C)N1CCCCC1)N(=O)=O , P21/c ,1,0,1.31949104255,0.6784958013869999
1243, CABKEX , [O]N(Cc1ccccc1)=CC1COC2(CCCCC2)O1 , P21 ,0,0,1.25098716005,0.677272727273
1244, RUSHES , O=N(=O)C1(CCC(CC1)(N=[N+]=[N-])N(=O)=O)N=[N+]=[N-] , P21/n ,0,0,1.6184406841499999,0.721682296107
1245, XERFUV , CN(C)C(=O)C1CC(=NO1)c1ccc(NC(C)=O)cc1 , P212121 ,0,0,1.31700130301,0.68764004255
1246, MEPZUD , Cc1ccc(cc1)C1=NOC(=N1)c1ccccc1O , P21 ,0,0,1.34301633188,0.683392848286
1247, ZEHJUR , CC(=NN=C(C)c1ccc(cc1)N(=O)=O)c1ccc(cc1)N(=O)=O , Pbcn ,1,0,1.4165457445899998,0.7183804587360001
1248, CIBPUY , C1COc2ccccc2C(=NO1)c1ccccc1 , P21/c ,1,0,1.29966581213,0.684641646921
1249, JAHGOR , COc1cc(cc2nc3cc(ccc3nc12)N(=O)=O)C1C2C(COC2=O)Cc2cc3OCOc3cc12 , P212121 ,0,0,1.18443113578,0.561320130875
1250, LAWCUI , O=N(=O)c1ccc(cc1)C=NNc1ccccc1N(=O)=O , P21/c ,1,0,1.56536368886,0.7492650545280001
1251, EHAKEF , O=N(=O)c1ccccc1C1=CC=C(N1)C(c1ccccc1)=C1C=CC(=N1)c1ccccc1N(=O)=O , C2/c ,1,0,1.34435368648,0.669318996416
1252, MPIPXY01 , CC1(C)CC(=O)CC(C)(C)N1[O] , Pca21 ,0,0,1.15850964089,0.669487179487
1253, PIKQIJ , OC1CCCN(Cc2ccccc2)O1 , P21/c ,1,0,1.25436111989,0.6841432225059999
1254, RAPFIY01 , COC(=O)c1cc(cc(c1)N(=O)=O)N(=O)=O , P21/n ,0,1,1.65505255319,0.745319989908
1255, GUZSEA , O=C1OC(c2ccc(cc2)N(=O)=O)C1(c1ccccc1)c1ccccc1 , P212121 ,0,0,1.3529663693,0.6884218692949999
1256, SIBGIU , CC1(C)CC(C)(ON1c1ccccc1)N1C(=O)Cc2ccccc12 , P21/c ,1,1,1.27651765738,0.6919564453810001
1257, DAJTIR , CC(C)(C)N1OC(C2CN(CC=C)C(C(O)c3ccccc3)C12)c1ccccc1 , P212121 ,0,0,1.15970120488,0.66569017717
1258, DUVVEW , COC(=O)C1(CC(=C)C(C)(C1c1ccccc1)N(=O)=O)C(=O)OC , P21/c ,1,0,1.2725306971299999,0.648822605965
1259, FUQBAU , CC1(C)N([O])C(=[N+]([O-])C1(C)C)c1ccc(nc1)c1ccc(cn1)C1=[N+]([O-])C(C)(C)C(C)(C)N1[O] , P21/n ,0,1,1.33661981597,0.6948406478579999
1260, DEWYIQ , C[N+]1=NOC(=C1)[N-]C(=O)OC(C)(C)C , P21/c ,1,0,1.29167952576,0.669926060057
1261, MEQDUK , CCC1(CC)N([O])C2(CC(C)CCC2C(C)C)CN(C(C)C)C1=O , P212121 ,0,0,1.0892116016,0.649413881612
1262, EZEGEW , COc1cc(C=Nc2ccc(cc2)N(=O)=O)cc(OC)c1OC , P212121 ,0,0,1.38274630782,0.7023781146510001
1263, TAMLID , O=C(NC(CC1=CNc2ccccc12)C(=O)Oc1ccccc1N(=O)=O)OCc1ccccc1 , P21 ,0,0,1.3518492047600001,0.672776442308
1264, MIXBUS , O=N(=O)c1ccc2Nc3ccc(cc3c2c1)N1c2ccccc2c2ccccc12 , P21/c ,1,0,1.3947229803,0.6950158227850001
1266, NXENAM01 , O=N(=O)OCCN(CCON(=O)=O)N(=O)=O , P21/c ,1,0,1.6599245848500002,0.7270107933409999
1267, GELROG , CC1=C(C(=NO1)C)C1=[N+]([O-])C(C)(C)C(C)(C)N1[O] , P-1 ,1,0,1.28211283962,0.6836
1268, DUVMAI , O=C1c2ccccc2C(=O)C1=Cc1ccccc1N(=O)=O , P21/a ,0,0,1.4695033912,0.719948308271
1269, CAKQAI , CNC1=NC2=C(N=CN2C)C(N1)=NOC , P21/n ,0,1,1.4344705956900001,0.719976821672
1270, DUNDIA , O=CN1C2C3N(C=O)C4C1N(C(C(N2N(=O)=O)N3N(=O)=O)N4N(=O)=O)N(=O)=O , P212121 ,0,0,1.8914031936700002,0.744839754972
1271, DOHGIS , CCCCCCCCCCN1c2ccc(cc2c2cc(ccc12)N(=O)=O)N(=O)=O , P21/c ,1,1,1.2573612008,0.666967213115
1272, XARMUA , O=C1C(Cc2ccccc12)=Cc1cccc(c1)N(=O)=O , P-1 ,1,1,1.45516018835,0.730821251453
1274, TIJBEV , CN(OCc1ccccc1)C(C)=O , P21/c ,1,0,1.23234077884,0.666176005065
1275, KUFWUF , CCOc1cc(N)c(cc1C(=O)N(Cc1ccccc1)Cc1ccccc1)N(=O)=O , P21/c ,1,0,1.29366806869,0.668567350312
1276, GUWBIJ , CCOCN1C(=C(C(c2cccc(c2)N(=O)=O)C(=C1C(=O)OC)C(=O)OC)C(=O)OC(C)C)C , P21/c ,1,1,1.32549923504,0.6654542136
1277, EFIFUV , CCC1OC(=O)N(c2ccccc2)C21CC(=NO2)c1ccccc1 , P21/c ,1,0,1.33865946076,0.7000487055560001
1278, PUBMUU09 , O=N(=O)N1C2C3N(C1C1N(C(C(N3N(=O)=O)N1N(=O)=O)N2N(=O)=O)N(=O)=O)N(=O)=O , P21/n ,0,0,1.93806794387,0.728977580685
1279, LAZQOT , CC(C)(C)c1cc(C=NC(C(N=Cc2cc(cc(c2O)C(C)(C)C)C(C)(C)C)c2cccc3cccnc23)c2ccc(cc2)N(=O)=O)c(O)c(c1)C(C)(C)C , P21/c ,1,0,1.1792229632100002,0.657086257148
1280, CIBREK , CC(C)(C)C1=CC(C)(C(N(=O)=O)C(O)(C1=O)C(C)(C)C)N(=O)=O , P212121 ,0,1,1.29486446698,0.60640309058
1281, HEGFOP , CCCCCCCCCCN1N=C(C)C(=NO)C1=O , P21/c ,1,0,1.11430325264,0.625837742504
1282, GESYIN , CCOC(=O)C1=C2C=Cc3c(cccc3N(=O)=O)N2C2=C1CCCC2 , P-1 ,1,1,1.43819538194,0.723536667414
1283, ETAGIQ , CC(C)(C)c1ccc2C(=O)C(Nc2c1)=CC(=O)c1ccc(cc1N(=O)=O)C(C)(C)C , P-1 ,1,1,1.28211419539,0.689107868211
1284, FUZYUU , ONC(=O)CC(=O)NO , P21/n ,0,0,1.66710897935,0.740807668133
1286, QEZFAC , CC12CC3C(CC1=NOCON=C1CC4C(CC1(C)NCCN2)C4(C)C)C3(C)C , P212121 ,0,0,1.14623164401,0.647470389199
1287, MUTTUS , CCC1C(N(C)C(CC1=NOC(=O)c1cccc(C)c1)c1ccccc1)c1ccccc1 , P-1 ,1,1,1.15600244879,0.637358490566
1288, MADLUA , COC(=O)C12COc3ccccc3C1N(C)OC2c1ccccc1 , P21/n ,0,0,1.29270787816,0.664235517569
1289, CELNEO , COC(=O)C1=C(N(C(OC1c1ccc(cc1)N(=O)=O)C=Cc1ccccc1)c1ccccc1)C(=O)OC , C2/c ,1,0,1.31720068101,0.661284591441
1290, FIZCOG , O=C(c1ccccc1)C12C3c4ccccc4C(c4ccccc14)(N(=O)=O)C23C(=O)c1ccccc1 , Pbca ,1,0,1.33568777157,0.674078060976
1292, NOHROS01 , CC(C)c1cccc(C(C)C)c1N=Cc1ccc2ccccc2n1[O] , P-1 ,1,1,1.23878276596,0.695282131661
1293, JAGLIP , CC(=O)C1=C(C)OC2(CN1C(=O)C(=C(C)O2)C)c1ccc(cc1)N(=O)=O , P21/n ,0,0,1.41240767967,0.698431272169
1294, DNOPHL03 , Oc1ccc(cc1N(=O)=O)N(=O)=O , P212121 ,0,0,1.67182086287,0.725562554347
1295, ENUQAH , OC1(CCCCC1ON1C(=O)c2ccccc2C1=O)c1ccccc1 , Cc ,0,0,1.26110560729,0.650772102494
1296, IBABOD , COC(=O)C=C1ON2C(CCC2(C)c2ccccc2)C1C(=O)OC , P21/n ,0,0,1.35618584819,0.7079156223890001
1297, QAMWAC , CCOC(=O)C1=CC(C)(C)N([O])C1(C)C , Pnma ,1,1,1.16356934852,0.653332642675
1298, DUVFEH , CC(=O)N1c2ccccc2N2C(=O)c3cc(ccc3N=C12)N(=O)=O , P21 ,0,0,1.55865374879,0.738518518519
1299, IVATUV , COc1cc(OC)c(C=C2C(=O)ON=C2c2ccccc2)c(OC)c1 , P-1 ,1,1,1.37686321056,0.697886093641
1300, ERIXAF , CC1(OCC2(CO1)COC(C)(OC2)c1ccc(cc1)N(=O)=O)c1ccc(cc1)N(=O)=O , P-1 ,1,1,1.3917323141100002,0.677296181631
1301, CEBKID10 , CC1(C)c2ccccc2N(Cc2ccccc2)C21Oc1ccc(cc1C=C2)N(=O)=O , P-1 ,1,1,1.270415293,0.6625061789419999
1302, NIMDES , Oc1ccc(cc1N(=O)=O)C1(OC(=O)c2ccccc12)c1ccc(O)c(c1)N(=O)=O , Pbcn ,1,0,1.5353161742800001,0.703583351287
1303, TOCMUV , OCC(Cc1ccccc1)N(O)C(=O)OCc1ccccc1 , P212121 ,0,0,1.3463599203100003,0.706229821338
1304, KUKWAP , OC12C3C(C(c4ccccc14)c1ccccc21)C(=O)N(C3=O)c1ccc(cc1)N(=O)=O , P21/c ,1,0,1.4429483900799998,0.7082957551710001
1305, LIPLAY , Cc1ccc(cc1)C(NCCCCNC(=NO)c1ccc(C)cc1)=NO , C2/c ,1,1,1.27787064426,0.708472222222
1306, GAQMAO , Cc1ccccc1NN=C(N=Nc1ccccc1C)N(=O)=O , Pbca ,1,0,1.3663308676600001,0.714769487965
1307, TERWIW , CC(=O)OCC1OC(Oc2ccc(cc2)N(=O)=O)C(OC(C)=O)C(OC(C)=O)C1OC(C)=O , P21 ,0,0,1.3519624771599998,0.65107217787
1308, YULVUY , O=C(OCC1CON1Cc1ccccc1)c1cc(cc(c1)N(=O)=O)N(=O)=O , P21/c ,1,0,1.53417774699,0.738557864447
1310, NEFLIU , O=C1N(N=C(c2cccc(c2)N(=O)=O)C1=NNc1ccccc1)c1ccccc1 , Pna21 ,0,0,1.4252628108,0.703350970018
1311, NUVKOG , COC(=O)c1c(C)nc(C)c(C(=O)OC)c1C#Cc1cc(cc(c1)N(=O)=O)N(=O)=O , P-1 ,1,1,1.4884333660799998,0.71189033189
1312, GATWUU , CCCCCCCCCCCCOc1ccc(cc1)N=N([O])c1ccc(OCCCCCCCCCCCC)cc1 , P-1 ,1,1,1.129124834,0.6778560574670001
1313, LETPIK , CCOC(=O)C1=[N+]([O-])OC2C=C(CC12)C#Cc1ccccc1 , P212121 ,0,0,1.3677936402200002,0.708115086294
1314, ZAQTOC , CCOC(=O)COc1ccc(cc1)N(=O)=O , P21/c ,1,0,1.35795720198,0.670140212649
1316, UJULEQ , NC(=NO)c1ccc(cc1)C(N)=NO , P21/c ,1,0,1.5063452338699999,0.743393626184
1317, KIQYUH , O=N(=O)C1=CN(CN2C=C(C(=N2)N(=O)=O)N(=O)=O)N=C1N(=O)=O , Cc ,0,0,1.79915631412,0.7273282273280001
1318, NEQSIN , CN(C)C=Nc1ccc(cc1C#N)N(=O)=O , P21/n ,0,0,1.35447933475,0.689144189144
1319, NTROMA02 , CN(=O)=O , P212121 ,0,0,1.44595725669,0.662123033217
1320, RADKAJ , COc1ccc(cc1)C1OC(c2ccc(cc2N(=O)=O)N(=O)=O)C(O1)(C(=O)OC)c1ccccc1 , P21/c ,1,0,1.43147272276,0.6908658342039999
1321, ERSTNA , COc1c2C=CC(C)(C)Oc2c(CCCOC(=O)c2cc(cc(c2)N(=O)=O)N(=O)=O)c2OC(C)(C)C=Cc12 , P21/n ,0,1,1.28904819348,0.651540534208
1322, BEBKOJ , CN(C)c1ccc(cc1)N=CC=Cc1ccc(cc1)N(=O)=O , P21/n ,0,0,1.3374776262299999,0.711576207544
1323, AGESAG , Cc1ccc(cc1)C1=NC(c2ccc(cc2)N(=O)=O)C2(O1)C(=O)c1cccc3cccc2c13 , P21/c ,1,0,1.40036157116,0.703227806676
1324, EDOVAU , CCOC1=Nc2c(OC31N(C)c1ccc(cc1C3(C)C)N(=O)=O)ccc1ccccc21 , P21/c ,1,0,1.32764370573,0.67431832873
1325, AWAMAO , CC(C)(C)c1ccc2OCCCCCOc3ccc(cc3C3=C4C=CC(=N4)C(=C4NC(=C(C5=NC(=C(C6=CC=C3N6)c3ccc(cc3)N(=O)=O)C=C5)c2c1)C=C4)c1ccc(cc1)N(=O)=O)C(C)(C)C , P-1 ,1,0,1.00660595337,0.538003451646
1326, JIMHOD , CC1(CC1)C1(CC1)OC(=O)c1cc(cc(c1)N(=O)=O)N(=O)=O , P21/c ,1,0,1.4266192283,0.698207176609
1327, SIVWEZ , COC(=O)CC12CC(CC(=O)O1)N(O2)C(=O)Nc1ccccc1 , P-1 ,1,1,1.4559601044,0.7076830732289999
1328, ZIQCIN , CCOC1CC(C2CC(ON2O1)C#N)C(Cc1ccccc1)N(Cc1ccccc1)Cc1ccccc1 , P21 ,0,0,1.1801361787,0.640203272605
1329, PEPPOR , O=C1CC2CCC(C(C2C2N1CCC1=C2Nc2ccccc12)c1ccccc1)N(=O)=O , C2 ,0,0,1.32121826573,0.6770174165459999
1330, TITKUC , CC(=CC=CN1CCCC1)N(=O)=O , Pna21 ,0,1,1.24267927264,0.6843546785410001
1331, TENZUJ , O=N(=O)NC1=NNN=C1N(=O)=O , P21/c ,1,0,1.91847141932,0.741379310345
1332, MXPNFP , COc1cc(ccc1O)C(=O)C=CC1=CC=C(O1)N(=O)=O , P21/c ,1,1,1.48076355574,0.717815709885
1333, DMEGLY03 , CC(=NO)C(C)=NO , P-1 ,1,1,1.36640200579,0.7170406732119999
1334, ROKSIT01 , CN([O])=NNc1ccccc1C(O)=O , P21/c ,1,0,1.3876703247,0.6270008003199999
1335, PUJZUQ , O=C(Nc1ccc(cc1)N(=O)=O)c1ccccc1c1ccccc1C(=O)Nc1ccc(cc1)N(=O)=O , P21/n ,0,0,1.4358757192899998,0.6995090640989999
1336, ALORIE , O=C(ON1N=Nc2ccccc12)c1ccc(OCc2ccccc2)cc1 , P21/c ,1,0,1.3976210818900001,0.702775299639
1337, MEHCEI , O=N(=O)c1ccc(NN=C(C=CC2=CC=CO2)c2ccccc2)c(c1)N(=O)=O , P21/n ,0,0,1.3792571200100001,0.664890275523
1338, YAJGAT , COc1ccc(cc1)N1C(=C(C(c2cccc(c2)N(=O)=O)C(=C1C)C(=O)OC(C)C)C(=O)OC(C)C)C , P-1 ,1,1,1.26110999661,0.6551230506819999
1339, ZOSKAT , CN(C)c1cccc2c(ccc(N(C)C)c12)N(=O)=O , Pna21 ,0,0,1.33322616004,0.698064245475
1340, AZOLOR , CC1=CC(=NO1)C(O)=O , P-1 ,1,1,1.50238920686,0.706675341574
1341, JUWXEG , O=C1CCCC2=C1C(=CO2)C1=CC=C(O1)N(=O)=O , P21/n ,0,0,1.5726428524399998,0.746542821532
1342, HAKHEI , COC(=O)C1=N([O])c2ccccc2N(O)C1=O , C2/c ,1,0,1.60202622574,0.7369544969220001
1343, HEPFIR , COC(NC(=O)CN(=O)=O)(OC)c1ccccc1 , P1121/a ,0,0,1.3329855842799998,0.691814454615
1344, HOYYID , CCOC(=O)C1=C(C)NC(=C(C1C1=C(CCc2cccc3ccccc23)ON=C1C)C(=O)OCC)C , P21/n ,0,0,1.26682406131,0.6826873385009999
1345, TEJSUX , COc1cc2CCNC(O)c2c(c1OC)N(=O)=O , P-1 ,1,1,1.4624442238,0.709782817605
1347, MUXCIR01 , COc1ccc(C2=[N+]([O-])C(C)(C)C(C)(C)N2[O])c2c(OC)ccc(C=O)c12 , P21/n ,0,0,1.30859242661,0.675817985893
1348, KATZEN , O=C1CCc2c1cc1CCCc1c2N(=O)=O , Pn21a ,0,1,1.46920568795,0.7412912912909999
1349, TUCNUC , CCCC1CC(c2ccc(OC)cc2)C2(C)N(O1)OC(CC2(C(=O)OC)C(=O)OC)c1ccccc1 , P-1 ,1,1,1.28370130157,0.68027554535
1351, HIBWUK , CC(C)(C)c1cc(c(cc1N(=O)=O)N(=O)=O)C(C)(C)C , P21/n ,0,0,1.2300433814,0.666676634769
1352, SAGLIW , COC12OCCC1C=CC2COC(=O)c1ccc(cc1)N(=O)=O , P21/a ,0,0,1.3790566258,0.685636611693
1353, LIHFEN , O=N(=O)c1ccc2Oc3cc(c(cc3Oc2n1)N(=O)=O)N(=O)=O , P21/c ,1,0,1.7072846537200002,0.697365134865
1354, ESOLAB , O=N(=O)c1ccccc1C1OC1c1ccccc1N(=O)=O , P21/c ,1,0,1.4953623819400002,0.7105434782610001
1355, XIZDOA , COC(=O)C1(C(C)C(ON(Cc2ccccc2)C1c1ccccc1)c1ccccc1)C(=O)OC , P-1 ,1,1,1.2387981710200002,0.653615971493
1356, BEKLAE , [O]N1=C2CCCCCCC2=NO1 , P21/n ,0,1,1.33310007845,0.7012578616349999
1357, IWOPUH , Cc1cc(CON2C(C)(C)CC(CC2(C)C)NC(=O)c2ccccc2)nc2c1ccc1ccccc21 , P21/c ,1,0,1.2174007768700001,0.662863537325
1358, NOYGOX , COC1=CC(C(=O)c2ccccc12)=C(N(=O)=O)N(=O)=O , Pna21 ,0,0,1.6409973263600002,0.756269290123
1360, NUMLUE , CON(C)C(=O)C(C)NC1(c2ccccc2)c2ccccc2c2ccccc12 , P212121 ,0,1,1.2208291003799998,0.663933791651
1361, IMEYEG , CC(C)(C)NC1=C(C(=O)c2ccccc2)C(=C(O1)c1ccccc1N(=O)=O)C(=O)c1ccccc1 , P21/n ,0,0,1.31971161552,0.68437289116
1362, UJEMEB , NC(=O)c1cc(cc(c1)N(=O)=O)N(=O)=O , Pbca ,1,0,1.62315077787,0.70982170646
1363, RIJXAM , CONc1c(cc(cc1N(=O)=O)C(=O)OC)N(=O)=O , P-1 ,1,1,1.6052906665900002,0.721847353426
1364, TAVWEU , CCOC(=O)C(=CC)C=Cc1cccc(OC)c1N(=O)=O , C2/c ,1,1,1.3502750915700001,0.711318812223
1365, QERTUD , O=Cc1cc(cc2OCOc12)N(=O)=O , P21/c ,1,0,1.6957235287999999,0.757437942019
1366, YEQGUW , CC(C)OC(=O)C=Cc1cccc[n+]1[O-] , P-1 ,1,1,1.3324334945999998,0.7111167341429999
1367, WAJREH , CN1N=C(C)C2(C(CN(=O)=O)c3ccccc3C2=C)C1=O , P21 ,0,0,1.38562842261,0.708008489258
1368, NOCZUA , COC(=O)CCC1=C(CC(=O)OC)C(C)(CC2=C(CC(=O)OC)C(=C(N2)C=NOC(C)=O)CCC(=O)OC)NC1=O , P21/c ,1,0,1.32893977115,0.6773812633319999
1369, AZAVUT01 , Cc1ccc(cc1)C1=NOC2=C1CCc1ccccc21 , P21/c ,1,0,1.29707640976,0.700498575499
1371, DACPOM , CCN(CC)C(=O)C1(C)C2N=C(C)N=C(N(CC)CC)C(=CC2=N1[O])C , C2/c ,1,0,1.1508764264700002,0.599434222691
1372, ZEWTUT , CC(C)(CC1C=CC2COC1O2)OC(=O)c1cc(cc(c1)N(=O)=O)N(=O)=O , P212121 ,0,0,1.48206507623,0.716229993324
1373, ZIPSIC , NC(=O)C1=NON=C1N , P21/c ,1,1,1.6914733092899998,0.7444567627490001
1374, YEKTUE , COc1ccc(CN(C(=O)c2ccc(cc2)N(=O)=O)c2ccc(cc2)C(O)=O)cc1 , Pna21 ,0,0,1.32402434688,0.655521262003
1375, TEQNIO , CCOC(=O)C1(O)CC(c2cccc(c2)N(=O)=O)C(=CC21CCCC2=O)C(=O)OC , P-1 ,1,1,1.37728787109,0.687514133876
1378, SIMYIX , O=N(=O)c1ccc(NN=Cc2ccc3OCOc3c2)cc1 , Pca21 ,0,0,1.31830474569,0.638297641637
1380, DERGAJ , CCOC(=O)C1C(C)CC(OC(=O)c2cc(cc(c2)N(=O)=O)N(=O)=O)C2CCCC12 , Pbca ,1,0,1.41128692434,0.714052776946
1381, OLIBUH , CCOC(=O)C(C1OC(COCc2ccccc2)C(OCc2ccccc2)C(OCc2ccccc2)C1N(=O)=O)=C(NCc1ccccc1)c1ccccc1 , P21 ,0,0,1.23590826429,0.658850762527
1382, MACBIC , CCCCNc1nc(N)nc(OCc2cccnc2)c1N=O , C2/c ,1,0,1.34801408308,0.687971216258
1383, QUBMUW , CN1C(=NC(=C1c1ccccc1)c1ccccc1)c1cccc(c1)N(=O)=O , P21/c ,1,0,1.30951634616,0.678190023426
1384, VOFDOL , Oc1ccc(NC(=O)Nc2ccc(cc2)N(=O)=O)cc1 , P212121 ,0,0,1.5078545536399999,0.7226628261779999
1385, WIFFEX , ON=C(CCN1CCN(CC1)c1ncccn1)c1ccccc1 , Pn ,0,1,1.3133214653,0.6940122044239999
1387, ISOXAZ , O1C=CC(=N1)C1=CON=C1 , P21/c ,1,0,1.44564666296,0.698232066653