ID,name,smiles,space_group,inversion_symmetry,beta_packing,density,packing_coefficient
9597, FIQSIJ , COc1ccc(CN2C=C(CNC(=O)C3=CC=C(O3)N(=O)=O)N=N2)cc1N(=O)=O , P-1 ,1,1,1.52827485426,0.7020973510340001
9598, ROFQAG , OCCCN1CCc2ccccc2C(=NO)C1=O , P212121 ,0,0,1.28361749004,0.667884485747
9599, UGIROT , CC(=O)OC1CCC2(C)C(CCC3C2CCC2(C)C3CC=C2C(C)=NNc2ccc(cc2)N(=O)=O)C1 , P21 ,0,0,1.21268325278,0.652118503807
9600, WEXFAG , CC(CNC(=O)C(C)(N(=O)=O)N(=O)=O)(N(=O)=O)N(=O)=O , Pbca ,1,0,1.63136944663,0.691092808292
9601, XARNIN , CC1=CC2CCC1N(O2)c1ccccc1 , P21/n ,0,0,1.21159204445,0.666722256966
9602, HACPEG , COc1ccc(cc1)C(C)CCC(OC(=O)c1cc(cc(c1)N(=O)=O)N(=O)=O)C(C)C , P21/c ,1,0,1.3077186319,0.6771892443529999
9603, FAMJEL , CCCCC(C)(C=CCCc1cccc(OC)c1)C(C)CC(C)=NNc1ccc(cc1N(=O)=O)N(=O)=O , P21/c ,1,1,1.18972643896,0.652706269907
9604, MEVZES , O=N(=O)c1cccc2CCc3ccccc3c12 , P21/a ,0,1,1.34286458311,0.690484665936
9606, CEMVEV , N#CCCN1OC(CC1c1ccccc1)C#N , P21/c ,1,0,1.22190911284,0.660210353186
9607, JAGMEM , OC1CCC(O)C1N(=O)=O , P31 ,0,0,1.4650041992299998,0.7058418408689999
9608, MNPYDO10 , Cc1cn([O])ccc1N(=O)=O , P212121 ,0,0,1.5381610228100002,0.732244018915
9609, XEYVON , COc1cc(ccc1N1C(=O)COCC1=O)N(=O)=O , P-1 ,1,1,1.5920043350100002,0.745392073301
9610, JEKHOZ , OC1(CC(CC(=O)C1)c1ccccc1)c1cccc[n+]1[O-] , P212121 ,0,0,1.30643150624,0.679997202632
9611, ADAMIB , COc1ccc(c(c1)C1(CCN(C)C1)C(=O)OC1CCCCC1c1ccccc1)N(=O)=O , P212121 ,0,0,1.25793050471,0.664776315789
9613, RIKBUI , CC(C(O)C1CC(=NO1)C)C1CCC2C3CC(=O)C45CC4CCC5(C)C3CCC12C , P21 ,0,0,1.15948242662,0.570280583614
9614, QALCUE , CON1C(OC2=CC(=O)c3ccccc3C12CC=C)C1COC(C)(C)O1 , P21 ,0,0,1.31566848597,0.685525599129
9615, EWOFUR , OC(C(=O)c1ccccc1)C(=CC=C)c1ccc(cc1)N(=O)=O , Pna21 ,0,0,1.31136197073,0.6863207547169999
9617, AYAMIX , CN(C)C=CC=CC1=Nc2ccc(cc2N1CC=C)N(=O)=O , P-1 ,1,1,1.28862545065,0.679810268048
9618, LIVPEN , O=C(c1ccccc1)C1=C(C(N(Cc2ccccc2)O1)c1cccc2ccccc12)C(=O)c1ccccc1 , P21/n ,0,0,1.30091574347,0.683713850837
9619, XELGAX , O=N(=O)c1cccc(c1)N1COCN(COC1)c1cccc(c1)N(=O)=O , P21/n ,0,0,1.98641846455,0.78550956673
9620, NULGEI , O=C1NC(=CC(C1N(=O)=O)c1ccccc1)c1ccccc1 , P21/c ,1,0,1.31254450357,0.655034434997
9621, KABNUY , COc1ccccc1N1CCN(CC1)CCN(C(=O)c1ccc(cc1)N(=O)=O)c1ccccn1 , P21/n ,0,0,1.37155861511,0.714458212914
9622, DAWNIY , CC(C)(C)C1=CC(C(=O)C(C)(C1N(=O)=O)N(=O)=O)(N(=O)=O)C(C)(C)C , Pbca ,1,0,1.29535662907,0.650459932401
9623, FEVZOV , O=C(OC1C2CC34CC3CCC14C=C2)c1cc(cc(c1)N(=O)=O)N(=O)=O , P21/a ,0,0,1.42541950187,0.683587900569
9624, XIXKUK , CC1CCCC(C)N1c1ccc(cc1N(=O)=O)N(=O)=O , P-1 ,1,1,1.3572275582299997,0.6939024390240001
9625, PAFHIP , CON(C)C(=O)C(=N=[N])C(=O)C(CC(=O)OC)NC(c1ccccc1)(c1ccccc1)c1ccccc1 , P212121 ,0,0,1.2941434258600002,0.680594129666
9626, QIHRII , CC(=O)OC1C2CON(Cc3ccccc3)C2C(OC(C)=O)C1OC(C)=O , P212121 ,0,0,1.2743624373,0.656676616915
9628, MINHEY , CN1CCN(CC1)N=Cc1ccc(cc1)N(=O)=O , C2/c ,1,0,1.32076180638,0.6942401215809999
9629, BAKMOR , CCOC1C2CC(C3C2ON=C3c2ccccc2)N1C(C)=O , P21 ,0,0,0.6362125644650001,0.33638013933899996
9630, NITBAL01 , ON=Cc1ccc(cc1)N(=O)=O , P21/c ,1,0,1.4588070034799998,0.705241935484
9631, TMCPRO , CC1(C)C=C(C(N)=O)C(C)(C)N1[O] , P21/c ,1,0,1.15932791877,0.602127690968
9632, ASUMAC , OC(c1ccc(cc1)N(=O)=O)C1=CCCC1=O , P21/c ,1,0,1.4446546943799998,0.723259276225
9633, KAWQAD , COc1ccc(cc1)N1C(=CC(=C1c1ccc(cc1)N(=O)=O)C=O)C=O , P21/c ,1,0,1.35935513813,0.668739147973
9634, TAZHEK , CCN1C=NC=C1C1=[N+]([O-])C(C)(C)C(C)(C)N1[O] , P21/n ,0,0,1.27340574764,0.687468237468
9635, CTMTNA08 , O=N(=O)N1CN(CN(C1)N(=O)=O)N(=O)=O , Pbca ,1,0,1.84127534455,0.762616587329
9636, EAXIZP , CCOC(=O)CC(N)=C1C(=O)ON=C1OCC , C2/c ,1,1,1.3725220695200002,0.6798366969140001
9637, OHISEF , CCCCCCCCc1ccc(cc1)N=Cc1cc(ccc1O)N(=O)=O , P-1 ,1,1,1.23168003611,0.683487654321
9639, RICTAZ , CCOC(=O)C1=C(Nc2ccc(C)cc2)N(OC1=O)C1=Nc2ccccc2O1 , P21/n ,0,0,1.40114033799,0.699041043345
9640, ISURET , ON=C(Nc1ccccc1C(O)=O)C(=O)c1ccccc1 , C2/c ,1,1,1.3510303543200002,0.659277829089
9641, BARPEP , CC1CCC2C3C1CCC(OC(=O)c1cc(cc(c1)N(=O)=O)N(=O)=O)C3C2(C)C , P212121 ,0,0,1.31493246211,0.679352669058
9642, BERLUF , COC(=O)C(=CN(C)C)N(=O)=O , P-1 ,1,1,1.35896539849,0.6114379930170001
9643, JEXFEA , OC12CCCCC1C(C(=O)N2OC(=O)c1ccccc1)c1ccccc1 , P21 ,0,0,1.29993654852,0.684863247863
9644, YAZYIH , O=C(N=[N+]=[N-])N1C(=O)N(N(=O)=O)C23C4C5C6C4C12C6C35 , P-1 ,1,1,1.72814879532,0.702902523016
9645, GADTUD , CC1N(N=Cc2ccc(cc2N(=O)=O)N(=O)=O)C(CCC1(C)C)Cc1ccccc1 , P21/c ,1,0,1.3226362131,0.701940141375
9646, HEBJEE , COC(=O)C1=C(C(=O)OC)C2(OC1(OC)C(=C2C(=O)OC)C1(C(=O)OC)C2(ON3C(N(C)c4ccccc4C3C12C(=O)OC)c1ccccc1)C(=O)OC)C(=O)OC , P21/n ,0,1,1.4182007111700001,0.6866396103899999
9647, FAJXIA , CC1(C)C(=O)C2CC(=O)CCCCCON2C1=O , P21/n ,0,0,1.32651931482,0.7126050804090001
9648, UJIWEP , CCOC(=O)CCC(CC(C)C)N(O)C(C)c1c(cc(cc1C(C)C)C(C)C)C(C)C , Pca21 ,0,0,1.0033069991399999,0.599391003086
9650, MOVFIM , CC(=O)OCC1CC2ON3CCC(OC(C)(C)C)C3C2C(=O)O1 , P21212 ,0,0,1.26270704668,0.659931009441
9651, FAFCOE10 , CC12CCCC3(CCC13CCC2)OC(=O)c1cc(cc(c1)N(=O)=O)N(=O)=O , P21/n ,0,0,1.33159897992,0.600956242813
9652, POKPIO , COC(=O)c1cc(OC)c2C(=C)C3(OC)ON(CC4OC(C)(C)OC34)c2c1 , P21/c ,1,0,1.3840754298,0.7059223790320001
9653, IBIZOJ , O=N(=O)C1=NN(N=C1)c1ccccc1C#N , P21/c ,1,1,1.4921886237200002,0.692463092463
9654, SECYUV , COc1ccc(cc1)C1CN(=C2C1CCc1ccccc21)[O] , Pbca ,1,0,1.25500700199,0.6746589530930001
9655, HICFAA , CCN(CC)c1ccc2c(Oc3ccc(cc3C32OC(=O)c2ccccc32)N(=O)=O)c1 , P-1 ,1,1,1.3718666930599999,0.68474702381
9658, ZONFOX , COCC1CCCN1N=CC(CN(=O)=O)C(C)(C)C , P212121 ,0,0,1.1348836524600001,0.649538151818
9659, RERXEU , CC(=O)OC1CCCCC1(C)N(=O)=O , Fdd2 ,0,0,1.2606995828299998,0.66226707226
9660, FIKXAY , COC1C2C3CC4C2C2(C4C3(C(=O)OC)C12N(=O)=O)N(=O)=O , P21/n ,0,0,1.4618586652399999,0.669496434938
9662, VADHEQ , O=C1C2C(CC2c2cccc(c2)N(=O)=O)N1c1cccc2cccnc12 , I2/a ,0,0,1.4081495332799998,0.696505252665
9665, GADBAP01 , CC(=O)c1cc(ccc1O)N(=O)=O , Pca21 ,0,0,1.51231459016,0.740532851486
9667, UJAFER , Cc1ccc(cc1)C1CC1C(=O)ON1C(=O)CCC1=O , P212121 ,0,0,1.25493330183,0.644900697799
9668, WUDJUC , CCCC=N([O])C1C2C(CCC1(C)O)C(=O)Oc1ccccc21 , P212121 ,0,0,1.2925421523799998,0.693480085637
9669, XAGCUD , OCC(OCc1ccccc1)C1=NOC2C1COC2=O , P212121 ,0,0,1.33880445293,0.668482602521
9670, RUJHOV , CCOc1cccc(C=NN=C(C)C(C)=NO)c1O , P21/c ,1,0,1.29774877912,0.682323539778
9671, FAJYIY , CN(C)c1ccc(cc1)C(=C)c1ccc(cc1)N(=O)=O , P21/n ,0,1,1.24877845529,0.6656454656449999
9672, ATOPOP , Cc1cccc(C)c1N=Cc1ccc(cc1)N(=O)=O , P21/c ,1,1,1.22331809693,0.641575334217
9675, UREAOH03 , NC(=O)NO , P21/c ,1,0,1.6248570624399998,0.7265608465610001
9676, ZACNID , Nc1ccc(N)c(c1N(=O)=O)N(=O)=O , C2/c ,1,1,1.66239443788,0.730157723706
9677, TIXXAB , ON=C(C#N)C(=O)N1CCCCC1 , P21/c ,1,0,1.3236999297399998,0.721617445055
9679, JAQTOK , O=C1c2ccccc2c2nnc(cc12)c1ccccc1N(=O)=O , P-1 ,1,1,1.4533147752700002,0.692356321839
9680, IKACIH , CC1(C)OC(=O)C(=CNc2ccc(cc2)N(=O)=O)C(=O)O1 , P21/c ,1,1,1.44851507516,0.682832599021
9681, BETTEZ , CC(C)C(=O)C12C(=O)C(=C(OC(=O)c3cc(cc(c3)N(=O)=O)N(=O)=O)C(CC=C(C)C)(CC(CC=C(C)C)C1(C)CCC=C(C)C)C2=O)CC=C(C)C , P21 ,0,0,1.21452915785,0.667859466493
9682, VACFAI , COc1ccc2ccc(OC)c(C(=O)c3cccc(c3)N(=O)=O)c2c1 , P21/n ,0,0,1.38979593571,0.6977897843619999
9684, WUNYUZ , COC(=O)N(Cc1ccccc1)N=CC(=O)C1=C(N=CN1Cc1ccccc1)N(=O)=O , P21/c ,1,0,1.3460674295200001,0.6647798996750001
9685, PEQWIR , CC1(C)CC(=NNc2ccc(cc2N(=O)=O)N(=O)=O)C2(CC3CCC2C3)C1=O , P21/n ,0,0,1.34644149565,0.6834540267720001
9686, PEBPUI , O=N(=O)c1ccc2c3ccncc3c3ccccc3c3ccccc3c2c1 , P21/n ,0,0,1.4075751597400001,0.714612768184
9688, QOFQIL , CC1(C)NC(NC1(C)C)c1ccc(cc1)N(=O)=O , P21/n ,0,1,1.25389308713,0.685004084491
9689, RARNUU , C=CCOc1ccc(cc1C(c1cc(ccc1OCC=C)N(=O)=O)c1cc(ccc1OCC=C)N(=O)=O)N(=O)=O , P21/n ,0,0,1.34963908937,0.675866655102
9690, POQWOJ , O=C(OCC#C)c1cc(cc(c1)N(=O)=O)N(=O)=O , P212121 ,0,0,1.58933334935,0.731339875059
9691, VUWHEC , C=CCC1C2CN(CC(CN1C(=O)c1ccc(cc1)N(=O)=O)C12OCCO1)Cc1ccccc1 , P21/n ,0,0,1.3566074752700001,0.7125623268699999
9692, NIKVAF , COC(Nc1ccccn1)c1ccc(cc1)N(=O)=O , P21/c ,1,0,1.3494722440399998,0.684209929464
9693, DOPLOL02 , NC(=O)c1cc(c(N)c(c1)N(=O)=O)N(=O)=O , Pbca ,1,0,1.7510753622,0.7619259259260001
9694, ZAMWEP , CC1=NC(=CN1c1ccccc1)N(=O)=O , P21/n ,0,0,1.4124367941299998,0.704834847692
9695, NEQKUP , O=C(OC1CC2c3ccccc3C1c1ccccc21)c1cc(cc(c1)N(=O)=O)N(=O)=O , P21/c ,1,0,1.4182877024399998,0.6823641355210001
9696, TEGXOV , CC1(C)N([O])C2(CCCCC2)N(O)C1(C)C , P21/c ,1,1,1.1417495482,0.649019607843
9697, QOCWUC , CC1(C)Cc2nc3ccccc3c3C(=O)N(c4cccc(c4)N(=O)=O)C(=C1)c23 , P21/c ,1,0,1.37251432424,0.688494163097
9698, JEVGAT , CC1(CCC23N1OC(C)(c1ccccc21)c1ccccc31)CC1=N([O])C2(CC1)c1ccccc1C(=C)c1ccccc21 , P-1 ,1,1,1.29090159778,0.6880611395790001
9700, FIFTAP , COC(=O)C1C(C2=C(C)ON=C2C)C(=C(NCc2ccccc2)C=C1C)C(=O)OC , P-1 ,1,1,1.2923422925599999,0.675758841548
9701, MABZIZ , CNc1nc(N)nc(OCc2ccccc2)c1N=O , P212121 ,0,0,1.4014950558300001,0.698916865584
9702, OZALEI , O=N(=O)CC(N1N=C2C=CC=CC2=N1)c1ccccc1 , P21/n ,0,0,1.33618929011,0.6657914478620001
9703, WEFJID , CN(C)c1cccc(c1c1c(cccc1N(=O)=O)N(C)C)N(=O)=O , Pbcn ,1,1,1.36899370995,0.697882352941
9704, MUXKUM , O=C1OCC(Cc2ccc(cc2)N(=O)=O)C1C(=O)c1ccccc1 , P21/c ,1,0,1.38496861278,0.6910403772470001
9705, HOTJAB , CC1(C)C2CCC1(C)C(C2)OC(=O)C12CC3CCCC3(CCC1=NOC(=O)c1cc(cc(c1)N(=O)=O)N(=O)=O)O2 , P212121 ,0,0,1.3592410676700002,0.6839705465870001
9706, WEGVEL , COc1ccc(OC)c(C2=NOC3=C2C(=O)C=CC3(OC)OC)c1C1OCCCO1 , P21/c ,1,0,1.35798498605,0.673159542294
9707, FEFPUB , C(CNc1ccccc1)CC1=NOC(=N1)c1ccccc1 , P21/c ,1,0,1.26890175168,0.6858166922679999
9708, HOTCUQ , CN(C(=O)c1cc(cc(c1)C(=O)N(C)c1ccc(NC(=O)Nc2ccccc2N(=O)=O)cc1)C(=O)N(C)c1ccc(NC(=O)Nc2ccccc2N(=O)=O)cc1)c1ccc(NC(=O)Nc2ccccc2N(=O)=O)cc1 , P21/n ,0,0,1.40844279224,0.709180565534
9709, MUGSEM , O=C1Cc2ccccc2C(N1)c1ccc(cc1)N(=O)=O , P-1 ,1,1,1.4121143520700001,0.701226309922
9710, NEKRUT , ON=CC1=C2C=COC=C2OC1=O , P21/c ,1,0,1.64984966348,0.752944188428
9711, SIMFAW , O=C1OC(=Nc2cc(ccc12)N(=O)=O)c1ccccc1 , P21/c ,1,0,1.4701330540200002,0.692028060449
9712, DORKEA , CC12CCCC1=CCCCC2=NNc1ccc(cc1N(=O)=O)N(=O)=O , P-1 ,1,1,1.3437748179100002,0.701865507027
9713, IHEHUA , CC(C)(C)OC1CC(C)(CO)N(O1)C(CO)c1ccccc1 , P212121 ,0,0,1.18979412675,0.655739348371
9717, GAWMIB , O=N(=O)c1cccc(C=NCCCCCCCCN=Cc2cccc(c2)N(=O)=O)c1 , P21/c ,1,0,1.30056240733,0.69846353374
9719, ALEFON , COC(=O)C=C1CC(C)(C)N([O])C(C)(C)C1 , P21/c ,1,0,1.1738028267799998,0.681995916814
9721, QEHTUS , CC1(C)CC(CC(C)(C)N1[O])NCc1c2ccccc2cc2ccccc12 , P21/a ,0,0,1.16491608746,0.655333641191
9722, OHOLED , CC(C)C1CCC2(C)CCCC3(C)ON=C(CC23)C(C)(C=C1)N1CCOCC1 , P65 ,0,0,1.12703483369,0.6542228068379999
9723, SICGAM , CN1C(=O)N(C)C(=O)C2(ON=C(N3CCOCC3)N2C)C1=O , P212121 ,0,0,1.4755892449399999,0.708884867576
9724, OZUVIP , CN1C=NC=C1C1=NC(C)(C)C(C)(C)N1[O] , P212121 ,0,0,1.28618640516,0.6949967405480001
9725, UMOTUM01 , CC1=Nc2ccccc2C(=O)N1O , P21 ,0,0,1.4520928343000001,0.7194457328389999
9726, ZEZTIH , CC(C)C(N1C(=O)c2ccccc2C1=O)C(=O)N1CCC2=C(Nc3ccccc23)C1c1ccc(cc1)N(=O)=O , P21 ,0,0,1.2984186205700001,0.654595452142
9727, SEZXIG , COCCOCCOCCOc1cc(c(OCc2ccc3ccccc3c2)cc1C(=O)Nc1ccc(cc1OC(C)C)C(=O)OC)N(=O)=O , P-1 ,1,0,1.2789977503399999,0.7012083046969999
9728, YIDPIM , O=Cc1ccccc1N1N=C2C=CC(=CC2=[N+]1[O-])N(=O)=O , P21/c ,1,0,1.54986977107,0.712800396085
9729, TNITAN , Nc1c(cc(c(c1N(=O)=O)N(=O)=O)N(=O)=O)N(=O)=O , P21/c ,1,0,1.86065422663,0.7445042969239999
9730, EXEPIG , CC1=CC2=C(C(c3ccc(cc3)N(=O)=O)C3=C(O2)C=C(C)OC3=O)C(=O)O1 , P21/c ,1,0,1.46707772496,0.6932977173389999
9731, OKUHAD , COc1ccc(C=NO)c(C)c1C , P-1 ,1,1,1.2913164385,0.7023998122399999
9732, EVOBOG , COC(=O)c1c(C)nc(C)c(C(=O)OC)c1c1ccccc1N=N([O])c1ccccc1c1c(c(C)nc(C)c1C(=O)OC)C(=O)OC , P-1 ,1,1,1.2821130141500001,0.6464682998969999
9733, HOTCID , CC1(C)N([O])C(=N([O])C1(C)C)c1ccc(cc1)c1ccccn1 , P21/c ,1,0,1.2610566379500001,0.665652535028
9734, FICZOH , CC(C)(C)OCC(ON1C(C)(C)CCCC1(C)C)c1ccccc1 , Pbca ,1,0,1.1035284409200001,0.66721455183
9735, MNPHOL22 , Oc1cccc(c1)N(=O)=O , P212121 ,0,0,1.5274931459,0.728197376512
9736, FIHLIS , Cc1cc(C)cc(c1)N(=O)=O , P3121 ,0,1,1.28955067845,0.684195900582
9737, QEKBOX , CC(=O)OCC1OC(C(OC(C)=O)C1OC(C)=O)N1C=Nc2c(N)cc(nc12)N(=O)=O , P212121 ,0,0,1.47369502966,0.69601022405
9738, ABATOP , CN(C)c1ccc(cc1)C(=C(C#N)C#N)C(c1ccc(cc1)N(=O)=O)=C1C(=O)c2ccccc2C1=O , P21/c ,1,0,1.34627120915,0.677450208497
9739, SUVBOB , CC1=C(C)CC23C(CCCC2=NOC3=O)C1 , P21/n ,0,0,1.28399654469,0.701981534186
9740, ADOJEK , ON=Cc1cc(C=NO)cc(C=NO)c1 , Pna21 ,0,0,1.4675309805,0.720467663649
9741, PNBPIP , O=C(N1CCCCC1)c1ccc(cc1)N(=O)=O , P212121 ,0,0,1.3110032892,0.6901392572939999
9742, YEWZUW , CC(C)(C)c1ccc(OCC(=O)NN=Cc2ccc(cc2)N(=O)=O)cc1 , Pa ,0,0,1.2924972738,0.7064170597480001
9743, SABFIM , Oc1ccccc1C(=O)Nc1cccc(c1)N(=O)=O , P21/c ,1,0,1.48185885581,0.712970430108
9744, HAHXAR , O1N=C(c2ccccn2)C23C4=C5C6=C7C8=C9C%10=C%11C%12=C%13C%14=C%10C8=C8C%10=C%14C%14=C%15C%16=C%17C(=C%13%14)C%13=C%12C%12=C%14C%18=C%13C%17=C%13C%17=C%16C%16=C%19C%20=C(C%10=C%15%16)C8=C7C5=C%20C12C%19=C%17C1=C3C2=C(C%14=C3C(=C%11%12)C9=C6C3=C42)C%18=C%131 , Pbca ,1,0,1.7461051235099998,0.7402765432100001
9746, KEYXOE , CON=C(C(O)C(=O)OC1CC(C)CCC1C(C)C)c1ccccc1 , P212121 ,0,0,1.2077082394499998,0.6940899070100001
9747, SERYOF , COC(=O)C12C3C4C1C1C2C3C41COC(=O)c1ccccc1N(=O)=O , P-1 ,1,1,1.4662670838299998,0.710928484001
9749, DICDUO , O=C(OC1CCC2(CCCCO2)OC1)c1cc(cc(c1)N(=O)=O)N(=O)=O , P212121 ,0,0,1.38830721026,0.661293960555
9751, PYRDNO21 , [O-][n+]1ccccc1 , P41212 ,0,0,1.56716774513,0.8321657021019999
9752, ZEDVAI , CCOc1ccc2c(OC(=O)C=C2C2=NC(=NO2)c2ccccc2)c1 , P-1 ,1,1,1.4659499512600003,0.725417329094
9753, KEPJEV , CC(=O)OCC1OC(C(OC(C)=O)C(OC(C)=O)C1OC(C)=O)N(C(C)=O)c1ccccc1N(=O)=O , P21 ,0,0,1.3429349010799998,0.648506571087
9754, VESRAP , CC(OC(=O)C1(CONC(N)=O)CO1)c1ccccc1 , P21 ,0,0,1.3516891033899998,0.679869684499
9755, JOLNED , CN(C)N=Nc1ccc(cc1)N(=O)=O , P-1 ,1,1,1.3877870962399999,0.7023383325270001
9756, FUFXOT , COc1ccc(cc1)N=C(N(c1ccc(OC)cc1)c1c(cc(cc1N(=O)=O)N(=O)=O)N(=O)=O)c1ccccc1 , Pbcn ,1,0,1.42370665131,0.704603174603
9757, ASIMUL , CC(=O)OC1CC(OC(=O)c2ccc(cc2)N(=O)=O)C2(C)OC2C1 , P21 ,0,0,1.38732992183,0.683068413501
9758, GEDYEU , O=N(=O)N1CCN2N=NN=C12 , P21/c ,1,0,1.6896514111,0.719953775039
9759, ELUWUE , COC(=O)c1ccccc1C#Cc1c(NC(=O)c2ccccc2)cccc1NC(=O)c1ccc(cc1)N(=O)=O , P-1 ,1,1,1.3861371372799998,0.688513276539
9760, CEMHEK , CC(=O)NO , P41 ,0,0,1.31782743316,0.661199294533
9761, FUWGUA , CC1(C)C2(C)CCC1(OC2=O)C(=O)Oc1cc2OCOc2cc1C(CN(=O)=O)c1ccccc1 , P21 ,0,0,1.3681219109799998,0.6839560439560001
9762, VUXKOP , O=C(OC1CC2CCN3C2C(=C1)c1cc2OCOc2cc1C3=O)c1ccc(cc1)N(=O)=O , P212121 ,0,0,1.50615687162,0.730254613179
9765, ZZZJPA01 , O=N(=O)c1ccccc1c1ccccc1N(=O)=O , C2/c ,1,1,1.4468961835799998,0.697303725082
9767, HEKWIP , CCOC(=O)N1N=CC2C1C1C(=NOC21C)c1c(C)cccc1C , P21/c ,1,0,1.2604380988500001,0.6325970472429999
9768, AYAMOD , COC(=O)C(=CC=CC12N(Cc3ccccc3)c3cc(ccc3N1C(=C(C(=O)OC)C(=C2C(=O)OC)C(=O)OC)C(=O)OC)N(=O)=O)C(=CN(C)C)C(=O)OC , P-1 ,1,1,1.2834221379100001,0.632235609103
9770, GEVKAU , CON=C(COc1cc(OC)c(C)c2COC(=O)c12)c1ccccc1 , P21/c ,1,0,1.30588856222,0.671975683891
9771, KAMTOI , O=N(=O)c1ccc(N2CCOCCOCCN(CCOCCOCC2)c2ccc(cc2N(=O)=O)N(=O)=O)c(c1)N(=O)=O , P21/c ,1,0,1.4873860141100002,0.7108990274279999
9772, REBNUK01 , NC1=NC(=NO1)NCC(N(=O)=O)(N(=O)=O)N(=O)=O , P21/c ,1,0,1.85518738021,0.745794766999
9773, USULOK , CCOC(=O)C(O)C(=Cc1ccccc1)N(=O)=O , P21/n ,0,0,1.3453365206999999,0.677372010705
9775, PAXTAL , Cc1ccc(CNc2cccc(c2)N(=O)=O)cc1 , P21 ,0,1,1.28797482385,0.6770065821789999
9776, DARYUQ , CN1c2ccc(cc2C(C)(C)C21Oc1ccccc1C=C2)N(=O)=O , P1121/b ,0,0,1.31696425811,0.675424192666
9777, CAVROG , CC1=C(C)C1(C)C(C#N)(C#N)c1ccc(cc1)N(=O)=O , P-1 ,1,1,1.2502975301,0.663584637269
9778, UYISEC , O=C(Cc1ccc(cc1)N(=O)=O)c1ccc(cc1)C(c1ccccc1)=C(c1ccccc1)c1ccccc1 , C2/c ,1,0,1.2726758817200001,0.6782822383600001
9779, ZAZLAP , CNC(=O)C(Cc1ccccc1)N=Cc1ccc(cc1)N(=O)=O , P21/c ,1,0,1.3452507036899999,0.702865612648
9780, IMODUL , CCOC(=O)C(C(=O)OCC)C1=C(c2ccc(cc2)N(=O)=O)C(=C(N1)N(C)C)C#N , P21/c ,1,0,1.3706234466999998,0.718149482631
9781, WEKBOE , COC(=O)C(C(C)C)C(N(C(C)c1ccccc1)C(=O)c1cc(cc(c1)N(=O)=O)N(=O)=O)c1ccccc1 , P21 ,0,0,1.31160427533,0.669519138229
9782, GASZUX , Cc1ccc2NC(C3CC(=O)N(C3c2c1)c1ccccc1)c1ccc(cc1)N(=O)=O , P21/n ,0,0,1.31833021781,0.667554089305
9783, IQEQEA , ON=C(NCCN1CCOCC1)C(NCCN1CCOCC1)=NO , C2/c ,1,1,1.3163668247700002,0.6851464779459999
9784, SEJCOA , CC1=C(C(N)=O)C(=NO1)c1c(C)cc(C)cc1C , P21/a ,0,0,1.2627612158600001,0.6749227110580001
9785, SIJZIW , CON=C(C)c1ccc(OCC2CO2)cc1C#N , P21/c ,1,0,1.31253533738,0.6961286364270001
9786, PAHHIR , CNC(=O)CC(C)(C)N(OC)OC , Pbca ,1,0,1.13816608911,0.642678055414
9787, XAMJUT , COc1cc(ccc1O)C=Nc1cc(ccc1N)N(=O)=O , Pn ,0,0,1.4571748284700001,0.720326838176
9788, JAJTEW , O=N(=O)c1ccccc1c1cnc2cccnc2n1 , P-1 ,1,1,1.50941402046,0.729499358151
9789, POPDED , CC(=O)OC1CC2CC3(CC2CC1OC(C)=O)ON3CCC1=CNc2ccccc12 , P212121 ,0,0,1.25154574778,0.643254707221
9790, BOLKEU , O=C(CC1CCCON1C(=O)OCc1ccccc1)c1ccc(cc1)N(=O)=O , P21 ,0,0,1.34653544808,0.685523349436
9791, RUJJEM , Oc1ccc(c(C=NNC(=O)c2cc3ccccc3cc2O)c1)N(=O)=O , P21/n ,0,0,1.47413118979,0.699965700566
9792, DUJQOP , NC(=O)c1cc(ccc1O)N(=O)=O , P21/n ,0,1,1.55959575995,0.710722248766
9794, VABJUD , O=N(=O)N1CCN(C2=NN=NN12)N(=O)=O , P21/c ,1,0,1.7815526634799999,0.685423136646
9795, QOFHEZ , O=N(=O)c1ccc(NN=CC=Cc2ccccc2)cc1 , Pc ,0,0,1.29943283327,0.664184420846
9796, XETJOX , COc1cc(N2C=CN=N2)c(cc1N(=O)=O)N(=O)=O , P212121 ,0,0,1.58287564343,0.7066567074169999
9797, ERUHEF , CC(C)=CCOc1ccc2C=C(C(=O)Oc2c1)C(C)=NOCc1ccccc1 , P-1 ,1,1,1.259829096,0.6697324797950001
9799, TUBYIY01 , OCC(CO)(N(=O)=O)N(=O)=O , P21/n ,0,0,1.69791808007,0.724952919021
9800, EHAQOV , CN1C(=O)C2CC=C3CN(OC(C3C2C1=O)N1CCOCC1)c1ccccc1 , C2/c ,1,0,1.3422448365600002,0.692906729097
9801, GOSTIR , CC(=Cc1ccncc1)C(=NO)c1ccccc1 , I41/a ,1,0,1.1780045561799999,0.659432439856
9802, BUXWOI , CC1OC23CCCC4=C2C(CC1O3)C1=C(CCC(OC(=O)c2ccc(cc2)N(=O)=O)C1=O)O4 , P21 ,0,0,1.41665829104,0.690458937198
9803, NIVBUP , O=N(=O)C1=COc2ccccc12 , P-1 ,1,1,1.5717236087200002,0.7468975468979999
9804, XEXROH , ON=C1CCC(CC1)C1CCC(CC1)=NO , P21/c ,1,0,1.32714687875,0.7197427834219999
9805, HAKHUY , OC1=C(C(c2ccccc2N(=O)=O)C2=C(O)c3ccccc3OC2=O)C(=O)Oc2ccccc12 , C2/c ,1,0,1.50076402105,0.7017770539920001
9806, FAQMER , COc1ccc(C(=O)CC(O)c2cccc(c2)N(=O)=O)c(O)c1 , P-1 ,1,1,1.39731780809,0.688531187123
9808, CUCNET , CC(C)(C1C2CCCC12N(=O)=O)N(=O)=O , P21/c ,1,0,1.3448451309399998,0.6736166800319999
9809, QOCLUR , COC(=O)C1CC2Cc3ccccc3N1O2 , P212121 ,0,0,1.41249152292,0.733243767727
9810, IHEGOR , OC1CON2OC3(CCC3)CC12N(=O)=O , P21/n ,0,0,1.4614697079799999,0.70373460653
9811, WAKYIQ , CCC(C)C1NC(=O)C2=C(C)ON=C12 , P212121 ,0,0,1.20436575655,0.65729387203
9812, GISTAE , O=C(Nc1ccccc1)Oc1ccc(cc1)N(=O)=O , P21 ,0,0,1.49066846653,0.7297374951029999
9813, LEZPEL , CC1=NN(c2ccccc2)C(=O)C1=NNc1ccc(cc1)N(=O)=O , P21/n ,0,0,1.4165152667899998,0.693445395377
9814, XUBZAV , COc1cc(ccc1N1CCOCCOCCN(CCOCCOCC1)c1ccc(cc1OC)N(=O)=O)N(=O)=O , P-1 ,1,1,1.44882108199,0.730652851641
9815, WIFQEI , COc1ccc(cc1)C(CN(=O)=O)C1=CNc2ccccc12 , P21/n ,0,0,1.3482074508200002,0.697358442872
9816, MABZOF , CCCCNc1nc(N)nc(OCc2ccccc2)c1N=O , P21/c ,1,0,1.32459633365,0.695881562226
9817, KIJFOA , CCOc1ccc2ccccc2c1c1c(OCC)ccc2cc(ccc12)C1=[N+]([O-])C(C)(C)C(C)(C)N1[O] , P212121 ,0,0,1.23715917295,0.6581327752589999
9818, MALKOC , O=C1N(c2ccccc2)C(=Nc2ccccc12)C=Cc1ccc(cc1)N(=O)=O , P212121 ,0,0,1.34068166222,0.670944505123
9819, LOKGUP , CC1(O)C(C(CC1=O)c1ccccc1)N(=O)=O , P212121 ,0,0,1.34229603616,0.676520201884
9820, DAYTON , CCCOc1cc(ccc1OC)C=NNc1ccc(cc1)N(=O)=O , P21/n ,0,0,1.31079647048,0.674535519126