ID,name,smiles,space_group,inversion_symmetry,beta_packing,density,packing_coefficient
7029, KAQREZ , CC1(C)C2(C)N=N([O])C3C4CCCC4C4N=N([O])C1(C)C4C23 , P21/n ,0,0,1.3370277559700001,0.7267509311839999
7031, MATKEX , COC(=O)CC1=C(N=NN1C1OC(COC(=O)c2ccc(cc2)N(=O)=O)C2OC(C)(C)OC12)C(=O)OC , P212121 ,0,0,1.44023386069,0.68499918897
7032, KACNAF , COc1cccc2C=C(Oc12)c1ccc(cc1)N(=O)=O , P21/n ,0,0,1.49879355812,0.7425997818179999
7033, FAFCOE , CC12CCCC3(CCC13CCC2)OC(=O)c1cc(cc(c1)N(=O)=O)N(=O)=O , P21/n ,0,0,1.33159897992,0.662228408885
7034, SEKHEV , OCC1OC(CN(=O)=O)C(O)C(O)C1O , P212121 ,0,0,1.57313585056,0.724342579841
7035, NAPFOX , [O-][N+]1=C2c3cccc4cccc(C2=NO1)c34 , P21/c ,1,0,1.49534416731,0.710466988728
7036, YESRAP , CON=N([O])OCCOC(=O)c1ccc(cc1)N(=O)=O , P-1 ,1,0,1.60343362708,0.687127406395
7037, TELKAY , CC1=NOC(=C1CC1CC(=O)OC1(C)C)N , P212121 ,0,0,1.29707432818,0.682909977647
7038, KOJDEU , CON1C(CCC1c1ccccc1)C1OC(=O)C(=C1)C , P212121 ,0,0,1.2923931231899999,0.704258953168
7039, MOPPIQ , CCOC(=O)CNc1nc(NCc2ccccc2)nc(OCc2ccccc2)c1N=O , P21/c ,1,0,1.36332027629,0.6978707339169999
7040, ROKSIT , CN([O])=NNc1ccccc1C(O)=O , P21/c ,1,0,1.3993994012900002,0.670168067227
7041, OKUXIC , COC(=O)COc1ccc(cc1OCC(=O)OC)N(=O)=O , Pca21 ,0,0,1.4937808388,0.711962625756
7042, VIBKUN , CON=C(C)C(=O)C=CC1=CC=CN1 , P-1 ,1,1,1.2603991481,0.674307994359
7043, IFOFOY , O=C1CCC23CC(CC2c2cc4OCOc4cc2CCN13)OC(=O)c1ccc(cc1)N(=O)=O , P21/a ,0,0,1.40347769171,0.68648105794
7044, AKUJAT , CC12CC(C=O)C(C(N(=O)=O)C1(O)CCCC2=O)c1ccccc1 , P21/n ,0,0,1.38871047616,0.721164021164
7045, XABCUZ , O=N(=O)c1ccc([O-])c(C=[NH+]C2CCCCC2)c1 , P-1 ,1,1,1.35040565306,0.72816399287
7046, UNILIO , CC1(C)OC2C=CC3ON=C4CCCCC34C2O1 , P212121 ,0,0,1.2638802862,0.674621749409
7047, NOFNED , Cc1cc(ccc1O)c1ccccc1N(=O)=O , Pca21 ,0,0,1.3748418423100002,0.701132639489
7048, SEMLEE , ON=NC1=NN=NN1CCN1C=CC=N1 , P21/c ,1,0,1.48212549468,0.6880294286390001
7049, WOTRAA , O=C(C=Cc1cccc(c1)N(=O)=O)c1ccc(cc1)c1ccccc1 , C2/c ,1,1,1.3632321799399998,0.707699545617
7050, GIKNOF , COC(=O)C12CCCC1(O)OC(C)(C2)C#Cc1ccc(cc1)N(=O)=O , P-1 ,1,1,1.35080909057,0.691221640038
7051, KIJNOG , CC1(C=CC(C)(C(C1ON(=O)=O)N(=O)=O)N(=O)=O)N(=O)=O , P21/c ,1,0,1.59145331836,0.694871794872
7052, FUQLAE , CC(O)C(NC1=NC(=C(N=O)C(=O)N1C)N)C(O)=O , P21 ,0,0,1.54807572939,0.715273609444
7053, GUTNIS , OC(=O)c1cc(ccc1O)N(=O)=O , P-1 ,1,1,1.65497051324,0.727747132475
7054, KUYFUH , CC1C(CCC1C(C)(C)C)OC(=O)c1cc(cc(c1)N(=O)=O)N(=O)=O , P21/c ,1,0,1.2490520077,0.643029359892
7056, YEYNAS , Cc1ccc2N3CN(Cc2c1N(=O)=O)c1cc(c(C)cc1C3)N(=O)=O , P-1 ,1,0,1.49108918378,0.741004951403
7057, TEMYUI , COc1ccc(cc1)C(=O)N(Cc1cccc(c1)N(=O)=O)c1cccc(OC)c1 , P21/n ,0,0,1.32307175577,0.681112680477
7059, HACVAL , OCC1NC1c1ccc(cc1)N(=O)=O , P43212 ,0,0,1.3602228056799999,0.6746588757590001
7061, FEZQUX , Cc1cc(cc(C)c1O)C1=[N+]([O-])C(C)(C)C(C)(C)N1=O , C2/c ,1,0,1.2338933094700002,0.663734896944
7062, CASTEV , COc1ccc(cc1OC)[N+]([O-])=C(N1C(=O)CCC1=O)c1ccc(OC)c(OC)c1 , P21/n ,0,0,1.33556349842,0.669084322125
7063, AQILIW , O=N(=O)c1ccc(Nc2ccc(cc2)N=Nc2ccccc2)c(c1)N(=O)=O , P21/n ,0,1,1.49629290158,0.725573704298
7064, KIBSAS , NC1=NC(=NO1)C1=NON=C1N(=O)=O , P21/c ,1,0,1.77795303336,0.708488890307
7065, SECZIK , COc1ccc(cc1)C(CN(=O)=O)C1CCc2ccccc2C1=C(C#N)C#N , P21/c ,1,0,1.25546275321,0.654446007189
7066, RIZHAK , CN1COCN(CC=C(C)CCC=C(C)C)C1=NN(=O)=O , P21/c ,1,1,1.21472058685,0.666167043741
7067, AFIWIX , CC(C)(C)N1OC(=C(C1c1ccccc1)C(=O)c1ccccc1)C(=O)c1ccccc1 , Pna21 ,0,0,1.24473449241,0.665716879771
7069, CEFKIH , CC(N1OC1(c1ccccc1)c1ccccc1)c1c(C)cc(C)cc1C , P212121 ,0,0,1.14424835193,0.659930996628
7071, TUSZOX , OCC(O)CN1C=C(CNc2cccc(c2)N(=O)=O)N=N1 , R3 ,0,0,1.40855425194,0.682601256739
7072, KEMSOL , COC(=O)C(=Cc1ccccc1)[N+]([O-])=Cc1ccccc1 , P21/c ,1,1,1.27180980517,0.674616216666
7073, JOXHIP , [O-][N+](=NOCc1ccccc1)N=C([O-])c1ccc[n+](Cc2ccccc2)c1 , C2/c ,1,0,1.2916042213799999,0.659953821469
7075, AFEPUX , NC(N)=Nc1c(cc(cc1N(=O)=O)N(=O)=O)N(=O)=O , P-1 ,1,1,1.7941363997599997,0.7648858016750001
7076, FIJFIN , CCCCCCCCCCCCCCCC(=O)ON=C(c1ccccc1)c1ccccc1 , P-1 ,1,1,1.1080341052,0.656776819923
7077, BOTLHD , Cc1ccccc1C(=O)ONC(=O)c1ccccc1 , P21/c ,1,0,1.2693731113,0.655902180736
7078, XAHBEN , O=C(OCCCCCCOC(=O)c1ccc(cc1)N(=O)=O)c1ccc(cc1)N(=O)=O , P21/n ,0,0,1.36045069568,0.674028065332
7080, BUTQEO , O=C(COC(=O)c1ccc(cc1)N(=O)=O)C12CC3CC(CC(C3)C1)C2 , P21/c ,1,1,1.36506676456,0.690844469062
7082, NAXJED , OC1N(Cc2ccccc2)C(=O)NC2=NON=C12 , P-1 ,1,1,1.52342447474,0.7121499081730001
7083, NIMLOL , CC(C)(C)c1ccc(cc1)c1c2N([O])C(C)(C)OC(C)(C)c2cc2c1N([O])C(C)(C)OC2(C)C , Pbca ,1,0,1.55479555863,0.713616580942
7084, BOWDEX , CC1(O)CCN(C2CCCCC2)C(C1N(=O)=O)c1ccccc1 , Pbca ,1,0,1.2197890998999998,0.667436079944
7086, SIVKIR , O=N(=O)c1ccc(cc1)c1c2ccccc2c(c2ccc(cc2)N(=O)=O)c2c3ccccc3c3ccccc3c12 , Pbcm ,0,0,1.3821713374899998,0.69094193712
7087, SEYLIU , COc1nc(N)nc(N2c3ccccc3N=C2c2ccc(C)cc2)c1N=O , P-1 ,1,1,1.2318096349299998,0.612815755673
7088, XOYXAL , CCC1C(N(N=O)C(CC1=O)c1ccc(OC)cc1)c1ccc(OC)cc1 , P212121 ,0,0,1.28824685105,0.684060566591
7090, ECIHUW , OC(CON1C(=O)c2cccc3cccc(C1=O)c23)CN1c2ccccc2c2ccccc12 , P21/c ,1,0,1.43817757759,0.7158582381470001
7091, FADTIQ , CC1=[N+]([O-])ON=C1C=NN1N=NN=C1N , P21/c ,1,0,1.54587887131,0.684976287263
7092, LIHGAK , O=N(=O)C=C1C2=C(Oc3ccccc13)c1ccccc1O2 , P-1 ,1,1,1.49804825997,0.6754651043269999
7093, BEVYUY , O=N(=O)C1=C(N(NCC(N(=O)=O)(N(=O)=O)N(=O)=O)C=N1)N(=O)=O , P21/n ,0,0,1.9092447483200001,0.753851540616
7095, FAYPEB , CCCC1CCC2C(C)CCCC2N1C(=O)c1ccc(cc1)N(=O)=O , P21/c ,1,1,1.19694026764,0.658497214028
7096, ZAYWAX , O=C(OC1CC=CC=CC1)c1cc(cc(c1)N(=O)=O)N(=O)=O , P21/n ,0,0,1.45818648306,0.70294673635
7098, KODHUG , OC(=O)C=Cc1cc(cc(c1)N(=O)=O)N(=O)=O , C2/c ,1,0,1.60085950076,0.726627958695
7099, XIFGUP , CON1C=C(C2OC(C)(C)C(COC(=O)c3ccc(cc3)N(=O)=O)C2=NOC(=O)c2ccc(cc2)N(=O)=O)c2ccccc12 , P-1 ,1,1,1.3879083438600002,0.67532818212
7100, MAYKIJ , CC1(C)OC2C(O)CN3CC4CC4(C3C2O1)N(=O)=O , P212121 ,0,0,1.4146293612399998,0.7035286935289999
7101, MNPYDO27 , Cc1cn([O])ccc1N(=O)=O , P212121 ,0,0,1.71389503236,0.804765676568
7102, PEYDUU , COc1ccc(cc1)C=C(C(O)=O)c1ccc(cc1)N(=O)=O , P21/c ,1,0,1.3486225218999999,0.665231259968
7103, WUNJUM , CC(C)(C)OC(=O)C1CC(CON2C(C)(C)CCCC2(C)C)C(C#N)(C#N)C21CCCCC2 , P21/c ,1,0,1.1436205795299998,0.661678960309
7104, ENALAH , Cc1ccccc1c1cc(cc(c1O)c1ccccc1C)N(=O)=O , P21/n ,0,0,1.32258673764,0.6970997113040001
7105, ABOFUT , COc1ccc(cc1C1C(C(ON1c1ccccc1)c1ccc(C)cc1)C(=O)c1ccccc1)C(C)(C)c1ccccc1 , P-1 ,1,1,1.21130824759,0.656382978723
7106, GUMLEH , Cc1ccc(cc1)C1C(N2C(=C1N(=O)=O)C=Cc1ccc3cccnc3c21)C(=O)c1ccccc1 , P21/c ,1,0,1.3512021178799998,0.6828737997259999
7107, ILOHIC , CN(CN1N=C(C(=C1N(=O)=O)N)N(=O)=O)N(=O)=O , P21/c ,1,0,1.8199108641400001,0.772190293742
7108, UHIGAV , CC1=NOC(=C1N)CC1(O)C(=O)Nc2ccccc12 , P21/c ,1,0,1.4210252336000002,0.6993334022319999
7109, OZUQIL , CC1(C)CC(=O)C2=C(c3ccc(cc3)N(=O)=O)C3=C(N=C(N)N3N=C2C1)c1ccccc1 , P21/c ,1,0,1.35742972873,0.6781584739550001
7110, RAMVUW , O=N(=O)C1=CNN=N1 , P21/c ,1,0,1.68887111167,0.6983743924920001
7111, ULEMIH , CC1CCC2C1CC(CCC2(C)O)OC(=O)c1ccc(cc1)N(=O)=O , Pbca ,1,0,1.3140543566299998,0.702637987013
7112, SIRXUM01 , Cc1ccc(cc1)N=C(c1ccccc1)c1ccc(cc1)N(=O)=O , P21/c ,1,0,1.21840619255,0.641572492197
7113, BUWBEA , CC1C(C)(C)N([O])C(C)(C)C2CCC34OC12OC3=C(C)C(C)(C)N([O])C4(C)C , P-1 ,1,1,1.2139512992100001,0.6817970853059999
7114, PADXID , CC(C)N1C(=O)N(C(=O)C21CC(N(O2)C(C)(C)C)c1ccccc1)c1ccccc1 , P-1 ,1,1,1.19865174135,0.652698412698
7115, GEYREK , O=N(=O)C1=NN2CCCN3N=C(N=C3C2=N1)N(=O)=O , P21/n ,0,0,1.6341722168900001,0.691335506757
7116, QIBNAR , C1C2CC3CC1CC(C2)C3=C1C2ON=C(C2C2ON=C(C12)c1ccccc1)c1ccccc1 , P21/c ,1,0,1.29293401897,0.679197994987
7117, YISYOQ , COc1cc(C2=Cc3ccccc3OC2=O)c(cc1OC)N(=O)=O , P-1 ,1,1,1.46692453819,0.7048570624420001
7118, SITROD , CC1CC(O)(Cc2ccccc2N(=O)=O)C(=O)O1 , P21 ,0,0,1.3957551156499999,0.689892639762
7119, DNBENZ12 , O=N(=O)c1cccc(c1)N(=O)=O , Pna21 ,0,0,1.6300210825900001,0.735580806125
7120, HABZIT , O=C1CCCCCCC1(CCC#N)N(=O)=O , P21/a ,0,0,1.26375280005,0.677480311121
7121, GEZBIZ , C=CC1(COC2Oc3ccc(cc3C(=O)C12C#N)N(=O)=O)c1ccccc1 , P21/c ,1,1,1.46217123312,0.7112429043459999
7122, FOHGUG , O=C1N(c2ccccc2)c2ccccc2C1(c1ccccc1)N(=O)=O , P-1 ,1,1,1.3903293653400002,0.698352272727
7123, XEBSII , C(ON1N=Nc2ccccc12)c1ccccc1 , Pbca ,1,0,1.33731336095,0.695413731178
7124, LILKAU , CC(=NNc1ccc(cc1N(=O)=O)N(=O)=O)C(=O)OCC(=O)c1ccccc1 , P21/a ,0,0,1.4349388529799998,0.67894418458
7125, RIPWOD , CC1=CC=C(C=O)C(C1)c1ccccc1N(=O)=O , Pbca ,1,0,1.30260286138,0.680418680362
7127, NERGAV , CCOC(=O)C(=O)C(=CNC)C(=O)c1ccc(cc1)N(=O)=O , P21/n ,0,0,1.38817171687,0.684099978996
7128, VASTAM , Cc1ccc(cc1)c1cc(c(c2ccc(C)cc2)c2c1Nc1ccccc21)N(=O)=O , P21/c ,1,1,1.2461619339899999,0.646252204586
7129, NIRJII07 , CC(C)(C)c1cccc(C=NO)c1O , I2/a ,0,0,1.60732390737,0.858690605169
7130, RORVID , CC(NC(=O)OC(C)(C)C)C(N(O)Cc1ccccc1)C1=CC=CO1 , P212121 ,0,0,1.25176979252,0.684667247744
7132, POQVEY , COCOC1CC(OC(COC(=O)c2cc(cc(c2)N(=O)=O)N(=O)=O)C(CC=C1)OCc1ccccc1)C#N , P212121 ,0,0,1.39288871363,0.6924583446320001
7133, LUDYIU , O=C1OC2(CC(C(C12)c1ccccc1)c1ccc(cc1)N(=O)=O)c1ccccn1 , P21/c ,1,0,1.4017028835499998,0.709666043954
7137, OGILIA , [O]n1ccc(c2ccccc12)N(=O)=O , P21/c ,1,0,1.63063640478,0.774943735934
7139, FIGNIS , COC1=NC(C(CN(=O)=O)c2ccc3OCOc3c2)C(=NC1C(C)C)OC , P212121 ,0,0,1.30786047502,0.660203270497
7140, XORHIW , CC1(C)C=C(C(=O)NO)C(C)(C)N1[O] , Pbcn ,1,0,1.17741653599,0.6138798226519999
7141, WUTXUG , CC1=C(C)CN(OC1)C(=O)c1ccccn1 , P-1 ,1,1,1.33662964037,0.710960434365
7142, BZHYDX03 , O=C(NOC(=O)c1ccccc1)c1ccccc1 , P212121 ,0,0,1.3761301170700002,0.709865814271
7144, ESEMUK , ON(Cc1ccccc1)C(C1COC(=O)N1Cc1ccccc1)C1=CNc2ccccc12 , P21/c ,1,0,1.2586410529799998,0.654394216894
7145, DANFUV , CON1C(=O)c2ccccc2C1=CC(=O)NC(C)C , P21/c ,1,0,1.2554586084200001,0.662680601148
7146, MIJVEH , CC(=O)N(CC(=O)N1CCCCC1)C(Cc1ccccc1)C(=O)Nc1ccc(cc1)N(=O)=O , C2/c ,1,0,1.28178386347,0.667951944151
7148, HOTNIN , CCOC(=O)C(=O)C(=CNC1=NOC(=C1NC)C(=O)OC)C(=O)OCC , P-1 ,1,1,1.39405669845,0.678765001936
7149, GUPRUG , Cc1ccc2C=C3C(=O)ON=C3Nc2c1 , P-1 ,1,1,1.4987041175100002,0.734155844156
7150, MABBIC , O=N(=O)C1(COCCC1c1ccccc1)CC1=CC=CO1 , P212121 ,0,0,1.3284525941,0.6968032240800001
7151, NEBHAG , COc1ccccc1[N+]1=CC(O[N-]1)=NC(=O)c1ccccc1 , Pbca ,1,0,1.38550357792,0.6988905354180001
7152, YILYOJ , CCCCCCCCCCCCCCCC(OC(=O)c1ccc(cc1)N(=O)=O)C#C , P212121 ,0,0,1.16141691541,0.675351031154
7154, QEDQIC , CCOC(=O)C1=C(N(O)c2ccccc12)c1ccccc1 , Pbcn ,1,0,1.33605920806,0.693492603653
7157, LIDTAU , O=C1C(CCCC1=Cc1cccc(c1)N(=O)=O)=Cc1cccc(c1)N(=O)=O , P21/c ,1,0,1.4390705508700001,0.711543030502
7158, CABLIA , CCC(=O)N1CC2CCCC3=CC(=O)CC1C23N(=O)=O , P21/c ,1,0,1.33016216744,0.698309146585
7160, LIPTOV , CC1=NON=C1C1=CC=NC2=NC(=NN12)c1ccccc1 , P21/c ,1,1,1.4613899397799999,0.718684326279
7161, OVAJOM , CN1CCC2CN(CC12)C(=O)c1ccc(cc1)N(=O)=O , P21 ,0,0,1.36544457524,0.7577841321709999
7162, EHAJON , CC1(CCCCC1N(=O)=O)C#N , P21/c ,1,0,1.23998257988,0.6694159836069999
7163, ANAMUZ , OC(=O)C1CC=CC2CN(OCc3ccccc3)C(=O)C12 , P21/c ,1,0,1.3754806943,0.7118923611110001
7164, DIYRIM , CC1(C)OCC(O1)C1OC(C2OC(C)(C)OC12)[N+]([O-])=CCOCc1ccccc1 , P212121 ,0,1,1.2849092984100001,0.667378505435
7166, MALNIZ , CC1(OC(=O)C=C1)C(CN(=O)=O)c1ccc2ccccc2c1 , P212121 ,0,0,1.30922743647,0.668346858094
7167, PIMWUG , Cc1cc(C)c(c(C)c1)C(=O)N1OC(O)CC1c1ccccc1 , P21/n ,0,0,1.22390611297,0.6614832535890001
7169, PENLOM , CN1C(=O)N(C)C(=O)C(C1=O)=C1ONc2ccccc12 , P-1 ,1,1,1.58088951554,0.736616385685
7171, FUPWIW , CCOC(=O)C1CC2=C(Nc3ccccc23)C2CC(ON12)c1ccccc1 , Pbca ,1,0,1.25657824823,0.658452610823
7172, DNITBZ , O=N(=O)c1ccc(cc1)N(=O)=O , P21/n ,0,0,1.6512175027399998,0.712262491203
7173, OVEKIL , CC1(C)CC(=O)C2=C(C1)Nc1ccccc1NC2c1ccc(cc1)N(=O)=O , P21/c ,1,0,1.32704256239,0.676872746294
7174, QEPFEY , CN([O])=Cc1ccc(O)cc1 , P21/n ,0,0,1.35601037208,0.7162929859110001
7175, MOQBUP , CN(c1cc(ccc1N(=O)=O)N(=O)=O)N(=O)=O , P21/c ,1,0,1.6476333901700002,0.6881386388899999
7176, MCNPIZ , COC(=O)C1=C(c2ccccc2)C2(ON=C(c3ccc(cc3)N(=O)=O)C2(C(=O)OC)C1=O)c1ccccc1 , P-1 ,1,1,1.2949830917799998,0.633217647646
7177, SIHXOY , CC1C2CCC3C(CCC4CCCCC34C)C2CC1=NNc1ccc(cc1N(=O)=O)N(=O)=O , P212121 ,0,0,1.2950297850599999,0.693582877145
7178, GEFXUM , COCC1OC(CC1OC)N1C(O)C(C)(ON(=O)=O)C(=O)N(C)C1=O , P212121 ,0,0,1.43369963581,0.687200802769
7179, WEJFOJ , CC1(C)N=C(N([O])C1(C)C)c1ccc(nc1)c1ccc(cn1)C1=NC(C)(C)C(C)(C)N1[O] , P21/n ,0,0,1.2658829452399998,0.7133748354539999
7180, MOVTAS , CCOC(=O)C1=C(NC(=O)N=C1C(=NO)N(=O)=O)c1ccccc1 , P21/c ,1,0,1.4623272133,0.6827550141500001
7181, IGAKIL , COC(=O)c1ccc(C(=O)OC)c(c1)N(=O)=O , P21/n ,0,0,1.5002395040099998,0.710613479263
7182, PEWQEO , Oc1ccc2ccccc2c1C=NOCCCCON=Cc1c(O)ccc2ccccc12 , P21/c ,1,0,1.3062764523200001,0.674974256213
7183, OMEXIN , COC1=C(N(O)C(C)C)C(=O)C1=O , C2/c ,1,0,1.46075974635,0.730754046585
7185, CECPOR , Cc1ccc(cc1)C1=NOC2C3N(CCc4ccccc34)C(=O)C12 , P21/c ,1,0,1.30883099358,0.673642166418
7186, CUKRUW , O=N(=O)c1ccc(cc1)C1=NC=C2OC(=NN12)C1CCC1 , P-1 ,1,1,1.43177625326,0.695853462158
7187, TONFUX , O=N(=O)c1ccc(N2CCCCC2)c(c1)N(=O)=O , P21/n ,0,0,1.4111524135299998,0.69282284231
7189, QOPWEZ , Cc1ccc2NC(CC(c3ccccc3)c2c1)c1cccc(c1)N(=O)=O , P21/n ,0,1,1.1129283891,0.5870868262169999
7190, FUHSOQ , COC(=O)C1(C(N(c2ccccc2)C(C1c1ccc(cc1)N(=O)=O)(C(=O)OC)C(=O)OC)c1ccccc1)N(=O)=O , P21/n ,0,0,1.4108487683000002,0.680907983562
7191, BOBDED , COCOc1cccc(c1C#Cc1c(OCOC)cccc1N(=O)=O)N(=O)=O , C2/c ,1,0,1.4476728606799998,0.745513830532
7193, QAFQUM , COc1cc(OC)c(c(OC)c1)C1=C(C2=CN(C)C=C2C2=[N+]([O-])ON=C12)N(=O)=O , Pbca ,1,0,1.5069543282700002,0.728560624477
7194, PIRSOA , CON1C(CCC1(C#N)c1ccccc1)c1ccccc1 , P212121 ,0,0,1.19627355929,0.663706805036
7195, BAMHOP , CC(C)(C)CC(ON1C(=O)c2ccccc2C1=O)c1ccccc1 , P21/c ,1,0,1.2261651427299998,0.659022747602
7196, RAFHOV , CCCCCOc1c2CC3=CC(=CC(Cc4cc(cc(CC5=CC(=CC(Cc1cc(c2)C(C)(C)C)(C5=O)N(=O)=O)C(C)(C)C)c4OCCCCC)C(C)(C)C)(C3=O)N(=O)=O)C(C)(C)C , P21/c ,1,0,1.21249550452,0.6570422228989999
7197, EGAZIX , COC(=O)c1ccc(c(N)c1c1ccc(OC)cc1)c1ccc(cc1)N(=O)=O , C2/c ,1,0,1.37097999276,0.689619936262
7198, PAMNIA , O=C1CCCN1c1cccc(c1)N(=O)=O , P21/c ,1,0,1.46118856644,0.7425925925929999
7200, APESIZ , NC(=NO)C(CCCNC(=O)C1=CC=CN1)=NO , Pbca ,1,0,1.35864292718,0.6758999621070001
7201, RIYPIZ , CCOC(=O)C(C=C1CC(OC1=O)c1ccccc1)=Cc1ccc(cc1)N(=O)=O , P21/n ,0,1,1.3348579102299998,0.674563880246
7202, CTMTNA , O=N(=O)N1CN(CN(C1)N(=O)=O)N(=O)=O , Pbca ,1,0,1.80594837195,0.7523994736640001
7203, BOQKUN , CN1OC2C(C(=O)N(C)C2=O)C21CCCCC2 , P212121 ,0,0,1.3335201622600001,0.698527892562
7204, UXOMAW , COC(=O)C1=C(C(=O)OC)C(=CN1Cc1ccccc1)c1cccc(c1)N(=O)=O , P-1 ,1,1,1.42676005301,0.7114724282289999
7205, SALOXM04 , ON=Cc1ccccc1O , P21/n ,0,0,1.48927698174,0.760332739156
7206, ABENAX , COC(=O)c1cc(cc(c1O)N(=O)=O)N(=O)=O , P21/c ,1,0,1.69158907918,0.724309970226
7207, KIKFOZ , O=N(=O)c1ccc(cc1)C1=NN(C(N([N]1)c1ccccc1)c1ccccc1)c1ccccc1 , P-1 ,1,0,1.31471239951,0.6895230716249999
7208, COSKOL , CC(C)(C)OC(=O)C1CC(=NN1N=O)c1ccccc1 , P-1 ,1,1,1.30481992386,0.689895958383
7209, KATGAO , Oc1ccc(cc1C=NNC(=O)c1ccccc1)N(=O)=O , Pca21 ,0,0,1.49621536699,0.720269138756
7213, QOGPUZ , CC(C)C1CCC(C)CC21N(C)C(=O)C1C3CCCC3ON21 , C2 ,0,0,1.2043939103599999,0.703237377814
7214, PUBLUT , CC(=O)N1C2C3N(C4C(N3C(C)=O)N(C(C1N4N(=O)=O)N2C(C)=O)N(=O)=O)C(C)=O , P21/n ,0,0,1.57758282032,0.71366875042
7215, VAJGAO , OCC1OC(CN(=O)=O)C(O)C1O , P21 ,0,0,1.5599200770500001,0.728017119411
7218, EXOQEO , Oc1ccc(Nc2ncccc2N(=O)=O)cc1 , P21/c ,1,0,1.4987808700799998,0.7201758969
7219, LIQKEC , O=C(NN=Cc1cccc(c1)N(=O)=O)C1=NNC=N1 , P21/n ,0,0,1.4653700691999998,0.672846774445
7220, TUPZUA , CN(C)C=C1N=C(OC1=O)c1ccc(cc1)N(=O)=O , P21/c ,1,0,1.53125805845,0.7482901936030001
7222, LEWYAO , COC(=O)C(C)CC(C(C)C)N(O)C(C)c1c(cc(cc1C(C)C)C(C)C)C(C)C , P21/n ,0,0,1.01821960726,0.609041983471
7223, HNFMNO , O=C1C(CCc2ccccc12)=CC1=CC=C(O1)N(=O)=O , P-1 ,1,1,1.42629217255,0.713815183343
7224, CAFCUK , CC1(C)N([O])C(C)(C)N(=C1C1=N([O])C(C)(C)C(C)(C)N1[O])[O] , P-1 ,1,1,1.24198160005,0.663355587244
7225, SIVNAO , OC12Oc3ccc4ccccc4c3C(C1C(=O)c1ccccc21)c1ccc(cc1)N(=O)=O , P-1 ,1,1,1.4256379217200001,0.692831462323
7226, WOKCOP , CC1(C)C(=O)C2(OC3(O)C(C)(C)N(=C(c4ccccc4)C3(O)C2c2ccccc2)=O)C(=N1=O)c1ccccc1 , P21/c ,1,0,1.31571690251,0.6791624431640001
7227, APAKUZ , Oc1c2C(=O)c3ccccc3C(=O)c2c(O)c(c1N(=O)=O)N(=O)=O , P21/c ,1,0,1.66333710222,0.717407237746
7228, HULWAM , None , P-1 ,1,1,1.3302850824899999,0.684437618839
7229, XEPBIG , Cc1ccc(cc1)[N+]1=NOC(=C1C(=O)C=CC1=C(Oc2ccccc2C)N(N=C1C)c1ccccc1)[O-] , P21/c ,1,0,1.32253392653,0.679072512386
7230, OLIGAR , CC(=O)OC1(C2OCCC2C1=O)c1ccc(cc1)N(=O)=O , P-1 ,1,1,1.39604262539,0.67693757855
7231, RIMHUQ , CC1(C)Cc2ccccc2C(=N1)C(=NO)C1=NC(C)(C)Cc2ccccc12.CC1(C)Cc2ccccc2C(=N1)C(=NO)C1=NC(C)(C)Cc2ccccc12 , Pn ,0,1,1.1819415459,0.578886809242
7233, XALDUM , NC1=NN2N=[N+]([O-])N=C2N=[N+]1[O-] , Cc ,0,0,1.9575516289200001,0.7688440902220001
7234, GAWGUH , Cc1ccccc1N=CC=Cc1ccccc1N(=O)=O , P21/c ,1,0,1.27686221493,0.677820091354
7235, PIWDUU , CC1(C)CCCC21CCN1CCC(C21)N(=O)=O , P21/a ,0,1,1.2155431667,0.6645914132140001
7236, YITLEU , CN1C2ON=C(CC2(C)c2ccccc12)c1ccccc1 , Fdd2 ,0,0,1.28347916236,0.6954964259950001
7237, NAWKON , CCOC(=O)c1ccn([O])c2ccccc12 , P21/c ,1,0,1.38709534063,0.70793159369
7239, GUFPIG , Cc1ccc(cc1)C=NC1CC(C)(C)N([O])C(C)(C)C1 , P21/c ,1,0,1.15402293372,0.67882555321
7240, GASGAI , CCOc1ccc(c(OCC)c1)N([O])=C1C=CC(=O)C=C1OCC , P21/n ,0,0,1.2327989526899998,0.643430759999
7241, CUSMOU , CC1(C)CCCC(C)(C)N1OC1N(Cc2ccccc2)C(=O)C(CC=Cc2ccccc2)N(Cc2ccccc2)C1=O , P21/c ,1,0,1.16715997009,0.648675869706
7242, ARIXIK , COc1cc[n+]([O-])c(c1)C1=CC=CN1Cc1ccccc1 , P-1 ,1,1,1.31489148829,0.700207555002
7243, TAXWOG , OC12CCCC3(CCCC3C3C1CCN3C(=O)c1cc(cc(c1)N(=O)=O)N(=O)=O)C2 , Pna21 ,0,0,1.4533997272799999,0.727854050711
7246, TINCEY , CC12ON=C(N1C(=O)NC1ON=C(C21)c1ccccc1)c1ccccc1 , P-1 ,1,1,1.39780425252,0.6862213673720001
7247, SOBGIA , Cc1ccc(NCc2cc(C)cc(c2NC=O)N(=O)=O)c(c1)N(=O)=O , P21/c ,1,0,1.40798062611,0.7076575276579999
7248, LARYIP , CC1CCC2(OC1)OC1CC3C4CCC5CC(CCC5(C)C4CC(=NO)C3(C)C1C2C)OC(C)=O , P212121 ,0,0,1.18713047794,0.650022948939
7249, NUMKUB , OC(CN1CC2CC(C1)C1=CC=CC(=O)N1C2)c1ccc(cc1)N(=O)=O , P21 ,0,0,1.38090174696,0.63338608913
7250, VINMAG , COc1ccc(cc1)N=Nc1cccc2cccc(c12)N(=O)=O , P21/c ,1,0,1.3788360574399998,0.6882826475849999
7252, NILYEO , COC(=O)C1(CC2C(=CC(C)C3(CCC23C)OC(=O)c2ccc(cc2)N(=O)=O)C1)C(=O)OC , P-1 ,1,1,1.3728863429299998,0.7010755088089999
7253, MBYIOZ01 , CC1=NOC(=O)C1=Cc1ccccc1 , P21/n ,0,0,1.35576113213,0.701371823187
7254, GABBES , CC(C1OCCCO1)C1CCCC1(CCC#N)N(=O)=O , P-1 ,1,1,1.30754864688,0.70410783728
7255, DOYGEF , CC1(C)CCCC(C)(C)N1OC(=CN(=O)=O)c1ccc(cc1)C#N , C2/c ,1,0,1.21047555073,0.655012987013
7256, KEPHOD , CC(=O)OCC1OC(Nc2ccccc2N(=O)=O)C(OC(C)=O)C(OC(C)=O)C1OC(C)=O , P212121 ,0,0,1.42641391494,0.6926560699330001
7258, ICUFIX , O=C(NCCON(=O)=O)c1ccccn1 , P212121 ,0,0,1.47536123419,0.706279114907
7259, KEQWUZ , CC1=C(C(c2cccc(c2)N(=O)=O)C(=C(C)N1)C(=O)OC(C)(C)C)C(=O)OCc1ccccc1 , Pca21 ,0,0,1.24889529879,0.655816976884
7260, OMEVIL , CON=C1C(=O)C=CC2=NOC=C12 , P21/c ,1,0,1.58290753391,0.762375611402
7262, KUPJIQ , CC1(C)CC(CC(C)(C)N1[O])OC(=O)C1C2CC(C=C2)C1C(=O)OC1CC(C)(C)N([O])C(C)(C)C1 , P212121 ,0,1,1.24930957671,0.672971990907
7263, CURSOZ , CCN(CC)c1ccc(cc1)N=Cc1ccc(cc1)N(=O)=O , P21/c ,1,0,1.30564595577,0.707543220088
7264, DEMMOX , CC1(C)CC2C1CCC(C)(C(CCC2=C)N(=O)=O)N(=O)=O , P21 ,0,0,1.20908537116,0.653613053613
7265, RULHOX , CCOC(=O)C1=NOC2CC(OC(=O)OC)C=CC2(O)C1 , P212121 ,0,0,1.42907386288,0.705365908077
7266, QEXZIF , CC1=NN(c2ccc(cc2)N(=O)=O)C(=C1N=Nc1ccccc1)C , C2/c ,1,1,1.3514808664500002,0.685330135084