ID,name,smiles,space_group,inversion_symmetry,beta_packing,density,packing_coefficient
936, WUHGIP , O=C1C2CC(C(=O)c3cc(ccc23)c2cccc(c2)N(=O)=O)c2ccc(cc12)c1cccc(c1)N(=O)=O , P212121 ,0,0,1.51396908437,0.739752953813
937, DICRAI01 , [O-][N+]1=CC(=NO1)c1ccccc1 , P-1 ,1,1,1.47206288134,0.7208170830600001
940, HECFOK , CN1C(=CN=C1c1ccccc1)N(=O)=O , P21/c ,1,1,1.4046328204499998,0.701451374337
942, PAHXIH , CC1(C)C2=CC=C(N2)C(C)(C2=CC=C(N2)C(C)(C)C2=CC=C(N2)C(C)(C2=CC=C1N2)c1cc(cc(c1)N(=O)=O)N(=O)=O)c1cc(cc(c1)N(=O)=O)N(=O)=O , I2/a ,0,1,1.35662970768,0.670155668789
943, XOPCUB , COc1ccc(OC)c2c(O)c(ccc12)C12CC(C)CC3=C1C(=NO3)c1c(OC)cccc1C2=O , P-1 ,1,1,1.35910341639,0.684752284752
944, SALOXM08 , ON=Cc1ccccc1O , P21/n ,0,0,1.7749034277400002,0.874237288136
946, OKUZOJ , CC1(C)N=C(N([O])C1(C)C)c1cc(ccc1O)N(=O)=O , P21/n ,0,0,1.3633275719600002,0.6885992549109999
947, QEBWUP , O=C(Nc1ccccc1N(=O)=O)ON1C(=O)CCC1=O , P21/c ,1,0,1.5391767366,0.706634505654
949, YOWXAK , CC1(C)N([O])C(=N([O])C1(C)C)c1ccccn1[O] , P212121 ,0,0,1.28569936214,0.666382938478
951, XOZJIG , ON=Cc1cccc(c1O)c1cccc(C=NO)c1O , C2/c ,1,1,1.47956215185,0.724082747853
952, YEPJIM , CC1CC(=NOC1OC1C(OC2OC(C)(C)OC12)C1COC(C)(C)O1)c1ccccc1 , P212121 ,0,0,1.22433288738,0.659633853541
953, LIJZOT , COc1ccc(cc1)N=C(C=[N+]([O-])c1ccccc1)c1ccccc1 , P21/c ,1,1,1.26499825876,0.6784751636499999
954, HOQZUK , CC(=O)OCC1OC(CC(=O)CC(O)c2ccccc2N(=O)=O)C(OC(C)=O)C(OC(C)=O)C1OC(C)=O , P21 ,0,0,1.340062828,0.655256043257
955, COMPEA01 , CC1(C)N([O])C(=[N+]([O-])C1(C)C)C1=CNC(=O)NC1=O , P21/c ,1,0,1.39711060682,0.678773082797
956, ERGDPH , CC(C)C(C)C=CC(C)C1CCC2C3=CCC4CC(CCC4(C)C3CCC12C)=NNc1ccc(cc1N(=O)=O)N(=O)=O , P21 ,0,1,1.2182043099200002,0.5895410895409999
957, COXXIW , NC(CO)C(O)c1ccc(cc1)N(=O)=O , P212121 ,0,0,1.44957051669,0.7165300103710001
958, SPHMXO , CC1(C)COC2(CCCCC2)N1[O] , Pnma ,1,0,1.1432957151,0.670131964809
959, VEYVOK , ON=CC(=NO)c1ccccc1 , P-1 ,1,1,1.36940128597,0.698343605547
960, WIZLAT , CN1C(=O)C(=C(N)N=C1N1CCOCC1)N=O , P21/n ,0,0,1.49387960169,0.71821104123
961, SEFNOG , O=N(=O)c1ccc(cc1)N1C2CCCC2C2CCCC12 , P212121 ,0,0,1.31489826645,0.704595748486
962, BIGWOE , O=C1C2C=CC(C1C1CCCC21)c1ccccc1N(=O)=O , P21/n ,0,0,1.3664713263,0.713759157509
963, KIKGUG , CCC1C(C)CC2C3CCC(OC)(OC)C3CC(OC(=O)c3ccc(cc3)N(=O)=O)C12 , P21/c ,1,0,1.25272494501,0.670030120482
964, UNOKUD , ON=C(Nc1cccc2ccccc12)C(=O)c1ccccc1 , P21/c ,1,0,1.26855571127,0.666573028072
965, WIQBON , COC(=O)C1CC2(ON=C(C2C#N)c2c(OC)cc(OC)cc2OC)C(=O)N1C(=O)c1ccccc1 , P212121 ,0,0,1.33500576624,0.610794865512
966, WOKCUU , CC(=O)OC1CN2OC(CC2C2OC(C)(C)OC12)C1OC2OC(C)(C)OC2C2OC(C)(C)OC12 , P21 ,0,1,1.3247041221,0.668878783397
967, ZEVGUF , Nc1c(C#N)c2c(CCC3=C2Nc2ccccc32)c(c2ccccc2)c1N(=O)=O , P-1 ,1,0,1.4024091220100001,0.7410353594429999
968, WUXVUI , CCOC(=O)C1=C(C=CN1)C1CC(=NO1)c1ccccc1 , P21/n ,0,0,1.3419489303299998,0.698781850213
969, YARGON01 , COC(=O)C1=C(C)NC(=C(C1c1ccccc1N(=O)=O)C(=O)OCC1CCCO1)C , P21/c ,1,0,1.23836057694,0.64900621118
970, MOTJIQ , CC(C)(C)c1ccc(OCC2=NC(=NO2)C2(O)c3ccccc3C(=O)c3ccccc23)cc1 , P21/c ,1,0,1.28528483335,0.686002886003
972, NIJNOL , O=C(Nc1cccc2cccnc12)C1C(C1c1cccc(c1)N(=O)=O)c1ccccc1 , C2/c ,1,0,1.3450754891999999,0.6836509644200001
973, LOLBUL , CCOC(=O)C1=C(C)NC(=O)NC1c1cccc(c1)N(=O)=O , P21/n ,0,0,1.4376468154799997,0.7219257795340001
974, ANISUN , CC(=O)Nc1c(ccc2cccnc12)N(=O)=O , Cc ,0,0,1.5027777550799999,0.726391242368
975, TNFLUO , O=C1c2cc(ccc2c2c1cc(cc2N(=O)=O)N(=O)=O)N(=O)=O , P21/n ,0,0,1.66450192903,0.727518133377
976, SEDPEZ , CC1(C)CC(CC(C)(C)N1[O])NC(=O)c1ccc(cc1)C1=NN=C(O1)c1ccc2ccc3cccc4ccc1c2c34 , P-1 ,1,1,1.3253426916600002,0.685551206784
977, XINFAE , CC1=NN(C(=O)C1=NNc1ccc(cc1O)N(=O)=O)c1ccccc1 , P21/n ,0,0,1.49014872899,0.714203779356
978, NEZNAH , CC1=CC(=NO1)O , P21/n ,0,0,1.4426408328799998,0.716820061358
980, JERHUJ , OCC(O)C(O)C(O)C(O)CN(=O)=O , P212121 ,0,0,1.5372896112299999,0.719569336779
981, OPOXAZ01 , OC1=NOC(=C1)c1ccccc1 , P21/n ,0,0,1.38893578213,0.71401336478
982, UMOLUF , O=C1ON=C(c2ccccc2)C1=Cc1ccc(cc1)c1ccccc1 , P21/c ,1,0,1.3347740275,0.741294470315
983, JABBOG , CC1=NON=C1C1=C(C=NN1N)N(=O)=O , P21/n ,0,0,1.58186272505,0.707729591404
984, DICPUA , [O-][N+]1=C(C=NO1)c1ccccc1 , P-1 ,1,1,1.4212903518900002,0.697738252086
986, WULRAW , COC1(C)OCC(OC1(C)OC)C(OC(=O)c1ccc(cc1)N(=O)=O)C=C , P21 ,0,0,1.3457665293,0.689325601375
987, SAGRAT01 , O=C(OCc1ccccc1)c1ccc(cc1)N(=O)=O , P21/n ,0,0,1.4167302590000002,0.715992694346
988, POPQER , CC(C)[N+]1=C2C(NC3CCCCC3N2C(=C1)c1ccccc1)c1cc(ccc1[O-])N(=O)=O , P21 ,0,0,1.30824039381,0.688906320669
989, PADQUJ , CN1C(=C(C(CN(=O)=O)c2ccccc2)C(=O)N(C)C1=O)N , Pna21 ,0,0,1.29802900967,0.6353996004
993, FUHNEC , CC1ON(Cc2ccccc2)C(=O)C2C1C=CC(C2c1ccccc1)c1ccccc1 , P-1 ,1,1,1.21502755855,0.654162289916
994, DNTDPH , O=N(=O)c1ccc(cc1)c1ccc(cc1)N(=O)=O , Pc ,0,0,1.45394549311,0.722053531264
997, ZIWRAA , CC1=NOC(=C1c1ccncc1)c1ccncc1 , P-1 ,1,1,1.34702130072,0.6894792825030001
999, SEVTIY , O=N(=O)N(CN1N=C(C=C1N(=O)=O)N(=O)=O)CN1N=C(C=C1N(=O)=O)N(=O)=O , P21/c ,1,0,1.78843916807,0.72062244898
1000, QOLXOE , CN(C)[N+]([O-])=NOc1cc(N(C)c2ccccc2)c(cc1N(=O)=O)N(=O)=O , P21/n ,0,0,1.46324923278,0.692092092092
1001, YEQCAY , O=C(NC1(N(OC(=O)C1=C(c1ccccc1)c1ccccc1)C(=O)c1ccccc1)c1ccccc1)c1ccccc1 , C2/c ,1,0,1.30326340655,0.667722361502
1002, SEKNAX , CCCCCCOc1ccc(cc1)C(=O)Oc1ccc(C=CC(=O)Oc2ccc(cc2)N(=O)=O)cc1 , P-1 ,1,1,1.2719132501100001,0.6561069518720001
1003, GOJDOY01 , CC1=C(C=C(C)N(=O)=O)c2ccccc2N1 , C2/c ,1,0,1.37978831153,0.7255060154109999
1004, OXALOQ , CC(C)N(C(C)C)C(=O)C(c1ccccc1)c1ccc(cc1N(=O)=O)N(=O)=O , P21/c ,1,0,1.28570066185,0.67091927248
1005, YITFEO , CCC1=NC(=C2C(Nc3ccccc3N12)c1ccc(cc1)N(=O)=O)C , P21/n ,0,1,1.38632648269,0.7134795590690001
1006, IQILAW , ONC(=O)CCCCCCC(=O)Nc1ccccc1 , P21/n ,0,0,1.2710972436,0.6962988231280001
1007, MXNSAC20 , COc1ccc(NC(=O)C=NO)cc1 , P21/c ,1,0,1.41059503109,0.7144481605349999
1009, DOZXIA , CON=C1C=CC23OCCOC2(OCCO3)C=C1 , P21/c ,1,0,1.4392878516499998,0.715608465608
1010, TAWVUJ , CC1(C)N(=C(c2ccccc2c2ccccc2)N(=O)C1(C)C)[O] , P21/c ,1,0,1.23814412509,0.681628944172
1011, ISOCID , O=C(c1ccccc1)C1=C(N(N=N1)c1ccc(cc1)N(=O)=O)c1ccccc1 , C2/c ,1,0,1.43395528143,0.713965395784
1012, FISNOM , CC=CC(=O)N1C(C(C)C)C2=NOC(=C2C1=O)C , P212121 ,0,0,1.29348461258,0.69250736377
1013, TIJROU , CC(=O)C(=NNc1ccccc1N(=O)=O)C(C)=O , P-1 ,1,1,1.44287750655,0.7005281143209999
1015, DUXSIY , CON=C(C#N)c1ccc(cc1)N(=O)=O , P21/c ,1,1,1.4054498625100003,0.675060850028
1016, HAXWEI , CC1=CC(C)(O)C(=O)C(C)(N(=O)=O)C1(C)N(=O)=O , P21/n ,0,0,1.4267111941,0.6999035417489999
1017, SAVFAW , CON(N=O)C(C)(C)C(C)(C)N(OC)N=O , P21/c ,1,1,1.3241657442599999,0.7006905802860001
1018, KAQROJ , COC1OC(OC)C2C1C1(C)N(=N([O])C2(C)C1(C)C)[O] , P21/n ,0,0,1.2705924319600002,0.653406234289
1019, HALMUE , CC(=O)OC1COC(Nc2ccc(cc2)N(=O)=O)C(OC(C)=O)C1OC(C)=O , P212121 ,0,0,1.40536931831,0.682075534815
1022, MNPYDO15 , Cc1cn([O])ccc1N(=O)=O , P212121 ,0,0,1.5134629447299999,0.7196259534970001
1023, AWULAG , COc1ccccc1C=NNC(=O)c1cccc(c1)N(=O)=O , P21/n ,0,0,1.37495166641,0.6764783580570001
1024, KEMREZ , O=C(Nc1ccc(cc1)N(=O)=O)c1ccc(cc1)N(=O)=O , P21/n ,0,0,1.53361629456,0.7167624521070001
1025, ZIXZUD , CC(C)Cc1ccc(cc1)C(C)C(=O)OC(C)CN1C(=NC=C1N(=O)=O)C , P21 ,0,0,1.22734380806,0.659366669731
1026, VALSUY01 , O=N(=O)C(COC(OCC(N(=O)=O)(N(=O)=O)N(=O)=O)(OCC(N(=O)=O)(N(=O)=O)N(=O)=O)OCC(N(=O)=O)(N(=O)=O)N(=O)=O)(N(=O)=O)N(=O)=O , I-42d ,0,0,1.8076397108200002,0.686784068659
1028, SEKHOF , OC1COC(CN(=O)=O)C(O)C1O , C2 ,0,0,1.52375772671,0.705934967905
1030, FALHUW , COc1ccc(C2CC3OC3CC2N(=O)=O)c(OC)c1OC , P-1 ,1,1,1.3747509453,0.6930430916
1031, YUXNEL , COC(=O)c1cc(OC)cc(NC(=O)c2cccc(NC(=O)c3cc(OC)cc(c3OC)N(=O)=O)c2OC)c1OC , P-1 ,1,1,1.51098693449,0.741674397032
1032, EQUZIZ01 , CC(C)(C)N([O])c1ccc(cc1)c1cc(cc(c1)C(O)=O)C(O)=O , Pbca ,1,0,1.31749603945,0.664139384225
1033, ADOGUX , CNC(=O)C1CCCN1C(=O)c1ccccc1NC(=O)c1ccccc1N(=O)=O , P21 ,0,0,1.3377383244399998,0.671578947368
1034, LUFXUH , O=N(=O)c1ccc(N2C3=NON=C3N(c3ccc(cc3N(=O)=O)N(=O)=O)C3=NON=C23)c(c1)N(=O)=O , P21/n ,0,0,1.7340640250200001,0.718099838969
1035, SOPZUS , CCC1=NC=CN1c1ccc(cc1)N(=O)=O , Pca21 ,0,0,1.38941798037,0.718082702931
1036, DANDIH , CCOC1OC(C(COC(=O)c2ccc(cc2)N(=O)=O)OC)C(OC(=O)c2ccc(cc2)N(=O)=O)C(OC(=O)c2ccc(cc2)N(=O)=O)C1OC(=O)c1ccc(cc1)N(=O)=O , C2 ,0,0,1.38912534801,0.662271246411
1037, OLAWAZ , O=N(=O)c1ccc(NN=C2C3CC(C=C3)C3CCCC23)c(c1)N(=O)=O , P-1 ,1,1,1.4411974189899999,0.714584641138
1038, YANREM , NC1=[NH+]N=NN1N=[N+]([O-])[O-] , Pna21 ,0,0,1.8354165936000002,0.733268061726
1040, QOYJOD09 , O=C1NN=C(N1)N(=O)=O , P21/c ,1,0,1.91852019412,0.7628518567460001
1041, PUJYUP , Cc1cc(C)c(CN2N=N([O])c3ccccc23)c(C)c1 , P21/c ,1,0,1.31501856055,0.710665624302
1042, KERTIL , COc1ccccc1C(=O)NN=Cc1ccccc1OCCOc1ccccc1N(=O)=O , P21/n ,0,0,1.3665646228200001,0.679505333711
1043, ZACLEX , CCOC(=O)N(C1=NON=C1N(C(=O)OCC)N(=O)=O)N(=O)=O , P-1 ,1,0,1.5447742331799998,0.69063449848
1044, EQAWEA , CCOC(=O)C(C)=NNc1ccccc1N(=O)=O , P21/c ,1,1,1.34373290659,0.668296568627
1045, KUZVUX01 , CCOC(=O)CN1C=C(N=C1C)N(=O)=O , P212121 ,0,0,1.4744943407100002,0.730426819557
1046, NIRLEG , O=C1N(C2C3CC3C3C=CC2ON3c2ccccc2)C(=O)c2ccccc12 , P21/c ,1,0,1.3824552817700002,0.707552756245
1048, LUJPIR , Cc1ccc2c(Oc3c2cc(cc3N(=O)=O)C(C)(C)C)c1 , P21 ,0,1,1.3205058589899998,0.696093908116
1049, HOXDIJ , COC(=O)C1=CN2CCCC(CCC(=O)OC(C)(C)C)(C=C)C2=C1c1ccccc1N(=O)=O , P-1 ,1,1,1.2785950621700002,0.674043367347
1050, SOFLEF , [O]N1=C(Cc2ccccc2)C(=O)ON1Cc1ccccc1 , Pbca ,1,0,1.3653903899200002,0.6988938334389999
1051, POQXOK , Cc1ccc(cc1)C1=COc2ccc(cc12)N(=O)=O , Pbca ,1,0,1.41460914936,0.720478296478
1052, XINGAC , CN(CN1N=Nc2ccccc12)N=O , P21/c ,1,0,1.3604068929700002,0.679346308615
1053, HOBZEE , CN(CC(N(=O)=O)(N(=O)=O)N(=O)=O)N(=O)=O , P212121 ,0,0,1.86227263195,0.7651038843719999
1055, FOJROM , COc1cccc(C=NOCCON=Cc2ccccc2O)c1O , P21/n ,0,0,1.3786340315399999,0.706145706146
1056, IMEZEF , OC12CCCC3Oc4cc(ccc4NC13Nc1ccc(cc1O2)N(=O)=O)N(=O)=O , Pbca ,1,0,1.5866196953,0.724008092615
1057, WAXFAE , O=N(=O)C1=CC(=C2C=C(C(=NN(c3ccccc3)c3ccccc3)C3=NON=C23)N(=O)=O)C2=NON=C2C1=NN(c1ccccc1)c1ccccc1 , P-1 ,1,1,1.45966757671,0.6947079012440001
1058, VESJOV , COc1ccc(cc1OC)C(=O)ON1N=Nc2ccccc12 , P-1 ,1,1,1.3783605738,0.6749445676270001
1059, FAHLAB , CC(C)C(O)C(C1CCOC(O1)c1ccccc1)N(=O)=O , P212121 ,0,0,1.2427054742,0.653643754619
1060, ROWHUI , O=C(c1ccc(cc1)N(=O)=O)c1ccccc1Oc1ccccn1 , P21/c ,1,1,1.4214150320399999,0.697566604377
1061, CENMIR , COC(=O)C1=CC2CC32CCCCC(=NO)C13 , P21/c ,1,0,1.30618929439,0.706497029191
1062, XAVMIQ , Cc1ccc(cc1)C(=O)NO , Pna21 ,0,0,1.34747373855,0.7675768408939999
1063, NANILI31 , Nc1ccc(cc1)N(=O)=O , P21/n ,0,0,1.43450917155,0.7003847736130001
1064, TECPOG , COC(CC(C(O)C1COC(C)(C)O1)N(=O)=O)OC , P212121 ,0,1,1.2370419836700002,0.635420289855
1065, UGOWOD , CC12CCC3C4(C)CCCC(C)(C4CC(O)C3(CC1=NO)C2)C(O)=O , P21 ,0,0,1.29237787389,0.6973805855159999
1066, HALLUC , CC1(CCC=N1[O])C(N)=O , P21/c ,1,0,1.4173985506400002,0.7389390622149999
1068, DABTEI , COc1ccc(cc1)C1=C(C=O)N2C=C(C=CC2=N1)N(=O)=O , P21/c ,1,1,1.4710079932,0.708552103634
1069, MXPACX , NC(=NO)C(O)c1ccc2OCOc2c1 , P21/n ,0,0,1.54021604082,0.733989555418
1070, UHALUK , NC1=NON=C1N=NC1=NON=C1N , P21/c ,1,1,1.7672268920599996,0.734035087719
1071, BOWDOH , CC(N1CCC(C)(O)C(C1c1ccccc1)N(=O)=O)c1ccccc1 , P212121 ,0,0,1.17119642722,0.629894856493
1072, UWUXOB , O=N(=O)c1ccc(NN=C2C3CCC3CC3CC23)c(c1)N(=O)=O , P21/n ,0,0,1.4394067464700002,0.7136517048019999
1074, COLNOI , CC(=O)C1C(C(C(C)=O)C(C)(O)CC1=O)c1ccc(cc1)N(=O)=O , Pbca ,1,0,1.35889536372,0.686371296704
1075, GAQMOB , CN1C=C2C=CC=C(C2=N1)N(=O)=O , P21/c ,1,0,1.4841846515700001,0.714664179104
1076, DAFYEO , CC(O)(c1ccccc1)C1=NOC(C1c1ccccc1)c1ccccc1 , C2/c ,1,0,1.21679832202,0.666497139224
1077, YELMUX , CC(=O)OC1COC(Nc2ccc(cc2)N(=O)=O)C(OC(C)=O)C1OC(C)=O , P43212 ,0,1,1.3547806620200002,0.598985527367
1079, BYPOXO , O=C1OC(=NC1=Cc1ccc(cc1N(=O)=O)N(=O)=O)c1ccccc1 , P21/n ,0,1,1.5348103389200003,0.707360899712
1082, OXINEQ , Oc1nc2c(CCCCC2(N(=O)=O)N(=O)=O)c(C#N)c1C#N , C2/c ,1,0,1.5106283504,0.693073683374
1083, CUZYIG , O=C(OCC(CCc1ccccc1)C12CCCCC1C2)c1cc(cc(c1)N(=O)=O)N(=O)=O , P1 ,0,1,1.32026072159,0.688210462421
1084, OSIGAZ01 , CC(C)(C)N(O)C1=[N+]([O-])C(C)(C)C(C)(C)N1[O] , Pna21 ,0,0,1.20623617628,0.660243055556
1085, MZACHX , COC(C)=NO , P63/m ,1,1,1.25880608079,0.6685619834709999
1086, ROYZAI , CN1C(=O)C2(NC(C(C2c2ccccc2)N(=O)=O)c2ccccc2)c2ccccc12 , P-1 ,1,1,1.31064195087,0.6688015006360001
1087, HUMJUU , CC(CN(CC(C)=NO)CC(C)=NO)=NO , I-43d ,0,0,1.20908754064,0.646285861622
1088, ABAWEH , CC(C)(C)CC(C)(C)c1cc(C=NO)c(O)c(c1)N(=O)=O , P-1 ,1,1,1.26115286879,0.6836515604629999
1089, EDAFUL , CC(=O)OC1C2CON=C2C2OC(C)(C)OC12 , P212121 ,0,0,1.32788946787,0.659363281646
1090, OWOFIR , CCC(C1CCC(C)C(O1)C(C)C(O)C(C)C(=O)C(CC)C1OC2(OC3(CCC(C)(O3)C3CCC(O)(CC)C(C)O3)C(O)C=C2)C(C)CC1C)C(=O)N(C)O , P21 ,0,0,1.17565973443,0.649043702629
1091, FOKNAV , CCC(C=C1C(N(Cc2ccccc2)C1=O)c1ccc(cc1)N(=O)=O)N=[N+]=[N-] , P21/n ,0,0,1.3098297272200001,0.674580103359
1092, GEYWOW , CC1=N([O])c2ccccc2N(=C1C(=O)NCCO)[O] , P-1 ,1,1,1.5303632633700002,0.743235904019
1093, HUYSIF , COc1ccc2ccccc2c1C=Nc1cccc(c1)N(=O)=O , P21/c ,1,0,1.3615397946399999,0.706620138573
1094, VIKYOD , O=N(=O)C1C2C3CC4C5C3C1C5C(C24)N(=O)=O , P21/c ,1,0,1.52187506755,0.709482370593
1095, VAWJAG , CC1(C)OC(C#C)C(O1)C(CO)OC(=O)c1ccc(cc1)N(=O)=O , P21 ,0,0,1.4200670542200002,0.70676132522
1096, ITAKOE , Oc1ccc2ccccc2c1C(N1CCCCC1)c1cccc(c1)N(=O)=O , Pna21 ,0,0,1.27654269144,0.67390850132
1097, MOPQAJ , O=N(=O)c1ccc(NN=CCC2C=CC3C4CC(C=C4)C23)c(c1)N(=O)=O , P21/c ,1,0,1.3626792415900002,0.6721668742219999
1098, TELZUH , Cc1ccc(cc1)c1ccc(cc1)N(=O)=O , Fdd2 ,0,0,1.36594100748,0.73223346421
1100, BIDKOO , OC(=O)CCCC(=O)NC(Cc1ccccc1)C(=O)Nc1ccc(cc1)N(=O)=O , P212121 ,0,0,1.3515766015700001,0.690417564379
1101, KAVYIS , COc1ccc2C3CCC4(C)C(CCC4(O)C#Cc4cc(c(cc4N)C#CC4(O)CCC5C6CCc7cc(OC)ccc7C6CCC45C)N(=O)=O)C3CCc2c1 , P212121 ,0,0,1.1608523209700001,0.625621592148
1102, HEYQOS , COc1nc(OC)nc(n1)C(CCC(=O)NCC1=CC=CO1)(N(=O)=O)N(=O)=O , P21/c ,1,0,1.4803817861500002,0.6882778017810001
1103, SUZKON , CCCCC(CN(OCc1ccccc1)C=O)C(=O)NC(C(=O)N(C)C)C(C)(C)C , P212121 ,0,0,1.1582199884,0.6631108937899999
1105, CELZUO , COc1cccc2cc3C=C(Oc3cc12)N(=O)=O , P-1 ,1,1,1.4888351791299999,0.7391248589309999
1107, QIZMAO , Cc1ccc(N=C=Nc2ccccc2)c(c1)C#Cc1ccc(cc1)N(=O)=O , P-1 ,1,1,1.3558549923299998,0.712207172672
1108, LANRAV , ON=C(CCN1C=CN=C1)c1ccccc1 , P21/c ,1,0,1.26101425747,0.6775128821709999
1109, JEXKIG , Cc1cc(cc(C)c1C)c1ccc(cc1)N(=O)=O , P212121 ,0,0,1.2759362848,0.69434598533
1112, LUYPAX , C1CC2CC3(CCCC4=CON=C34)C3=NOC(C1)C23 , P21 ,0,0,1.34239497641,0.6938328598479999
1113, POQSOE , CC1COC2(OC3CC4C5CC=C6CC(CCC6(C)C5CCC4(C)C3C2C)OC(C)=O)C(=C1)NN(=O)=O , P21 ,0,0,1.22360745404,0.650033970369
1115, EBEWOA , O=C1OC(=O)c2cc3c(cccc3N(=O)=O)cc12 , P21/n ,0,0,1.6056173180000002,0.728486692483
1116, NARDES , None , P-1 ,1,0,1.11123404351,0.753942857143
1117, VOQJER , CCc1ccc(cc1N)N(=O)=O , C2/c ,1,0,1.36104425696,0.706793478261
1118, JIHDEJ , CC1N(N(=O)=O)C(C)(OC(C)=O)OC1=O , P-1 ,1,0,1.5600603341100001,0.718553459119
1119, WICLAV , [O]N1=C(C(=O)C2(CC(ON12)c1ccccc1)c1ccccc1)c1ccccc1 , P21 ,0,0,1.34526396486,0.6896387010699999
1120, LUCWEN , CC(C)C1CCC(C)CC21N(C)C(=O)C1C3CCN(C3ON21)C(=O)OC(C)(C)C , C2 ,0,1,1.1816342711,0.6509552637789999
1121, HISQIJ , O=C1C(C(=O)c2ccccc12)c1ccccc1N(=O)=O , Pbcn ,1,0,1.5773268319100002,0.731443594457
1122, HEYHEY , O=N(=O)c1ccccc1Nc1cccc2cccc(Nc3ccccc3N(=O)=O)c12 , P-1 ,1,1,1.4617126206,0.7057730533230001
1123, BAKLUX , O=C1CC(N1)N(OCc1ccccc1)C(=O)c1ccccc1 , P212121 ,0,0,1.3177160993400001,0.6871706014010001
1125, VIGJUS , COc1ccc2C(=O)N(O)C(=O)c2c1OC , P212121 ,0,0,1.52257836273,0.716634615385
1127, XOTJUN , O=N(=O)c1ccc(cc1)N=Nc1ccc(cc1)N(CCC#N)Cc1ccccc1 , P21/c ,1,0,1.39066452266,0.7242658523909999
1128, TEHJEY , COCCOC(=O)C12CC3C(C(C1c1cccc(c1)N(=O)=O)C(=NC23C)C)c1ccccc1 , P21/n ,0,0,1.44150274745,0.6814056567479999
1129, WIZTIK , CCCCCOc1ccc(cc1)C=Cc1ccc(cc1)N(=O)=O , P-1 ,1,1,1.2622591875700002,0.692449922958
1130, PAQWIP , CC(C)(C)OC(=O)Nc1cccc(c1)C1=N([O])C(C)(C)C(C)(C)N1[O] , Pbca ,1,0,1.1493982652099999,0.6137561763030001
1131, XEBHET , CC(C)(C)N=N([O])C1=NON=C1NN(=O)=O , P21/n ,0,0,1.4364996620100001,0.660195999075
1132, ISITAF , COC(=O)C(Nc1ccccc1)(C(Nc1ccccc1)c1ccc(cc1)N(=O)=O)c1ccccc1 , Pna21 ,0,0,1.28149424018,0.661477607061
1134, NARLIB , COC(=O)C1C2ON(C)C1C1=C(C2=O)c2ccccc2N1C , P21/n ,0,0,1.32508547465,0.6724726641140001
1135, CEQCIK , CCCCN(CCCC)c1ccc2C#CC#Cc3ccc(cc3C#CC#Cc3ccccc3C#CC#Cc2c1)N(=O)=O , P-1 ,1,1,1.20396360213,0.6571324677170001
1136, TICWUY , CC(C)(C)OC(=O)Nc1ccc(cc1)C1=[N+]([O-])C(C)(C)C(C)(C)N1[O] , P21/n ,0,0,1.22300581082,0.659592163135
1137, EYOZAT , CC(C)(C)c1cc(cc(c1O)N(=O)=O)N(=O)=O , P21/c ,1,0,1.42212609589,0.698230318803
1138, GIQVEJ , O=N(=O)c1ccc2nc(cnc2c1)c1ccccc1 , P-1 ,1,1,1.48245215149,0.7296936370780001
1139, MOLJUT , COc1ccc(c2CC3(Cc12)NC(=O)C(Cc1ccccc1)NC3=O)N(=O)=O , P21 ,0,0,1.4050717725200002,0.6952551629970001
1140, SALLIB , C1CC2CCC3=NOC(C=C1)C23 , Pbca ,1,0,1.28233454907,0.7363562136990001
1141, SEPFAW , CCC1C(C(N(C1=O)c1ccc(OC)cc1)c1ccccn1)N(=O)=O , P21/c ,1,0,1.32812577323,0.684366319444
1142, DADYIS , CC(C(C(=O)OC(C)(C)C)C1=CC=CN1)N(=O)=O , P21212 ,0,0,1.2367636894,0.6550655270660001
1144, DAVWEF , CCC1=C(CC)C2=CC3=NC(=C(C4=C(CC)C(=C(N4)C(=C4N=C(C=C1N2)C(=C4CC)CC)N(=O)=O)CC)N(=O)=O)C(=C3CC)CC , P21/c ,1,0,1.2859558014899999,0.698052641803
1145, MAQCIR , CC1=NON=C1N=N([O])C1=NON=C1C , P21/m ,0,1,1.5421659845,0.678273809524
1146, HUTKOX , COc1cc2C=CCN(C(C)=O)c2c(c1)N(=O)=O , P21/n ,0,0,1.49157054484,0.746708193713
1147, NANHAL , CN(C)c1ccc(cc1)C1=Nc2ccc(cc2C1(C)C)N(=O)=O , P21 ,0,0,1.3537591330899998,0.7220301574279999
1148, VEBDIQ , CCOC(=C(C)C(O)=O)c1ccc(cc1)N(=O)=O , P21/c ,1,0,1.39257267874,0.7021829249089999
1149, KUZCUF , CCCCC(=NO)C(=C(c1ccccc1)c1ccccc1)N(=O)=O , P-1 ,1,1,1.2583480004799998,0.679685746352
1151, TIMGOM , CC(=O)CC(c1ccc(cc1)N(=O)=O)C1=C(OC(C)=O)c2ccccc2OC1=O , P21/a ,0,0,1.42011963808,0.703853319783
1152, ODAVEV , O=CC=NNc1cccc(c1)N(=O)=O , Cc ,0,0,1.50731458692,0.728353140917
1153, BODMAI , O=N(=O)c1ccc2OC(=Nc2c1)NC1CCCCC1 , P1121/b ,0,0,1.36198895856,0.68407263853
1154, UJEREG , O=N(=O)c1ccccc1N=[N+]=[N-] , P-1 ,1,1,1.53866394907,0.799431009957
1155, NIVCAW , O=N(=O)C1=[N+]([O-])OC2Oc3ccccc3C12 , P21/n ,0,0,1.67468780697,0.741119724376
1156, SOSFEL , CC1(C)C2CCC3(CON=C13)C2 , P21 ,0,0,1.31340238445,0.742873958135
1157, DUXCEF , O=C(N1c2ccc(cc2N=C1c1ccccc1)N(=O)=O)c1ccccc1 , P-1 ,1,1,1.3834702298500001,0.681493624772
1158, VENCEZ , O=Cc1cccc(c1)N(=O)=O , P21 ,0,0,1.5282960345299998,0.744616170055
1159, SUTLUP , CN(C(=O)c1cccc(c1C)N(=O)=O)c1cccc(c1C)C(=O)N(Cc1ccccc1)c1ccccc1 , P-1 ,1,1,1.30074419938,0.688707264957
1160, FELVAW , O=C(OOC(=O)c1cccc(c1)N(=O)=O)c1cccc(c1)N(=O)=O , P-1 ,1,1,1.6509113032700002,0.7508683990680001
1161, DAYPUP01 , O=N(=O)c1ccccc1C=NCCN=Cc1ccccc1N(=O)=O , P21/c ,1,0,1.40205962363,0.6850164942270001
1163, UDEHES , COC(=O)C1=[N+]([O-])N2OC3CCC=CCCC3C2(C(=O)OC)C1=O , Cc ,0,0,1.4163968416100001,0.688668261563
1164, LIDROG , CC(C)(C)c1cc(C=NOCCCCON=Cc2cc(cc(c2O)C(C)(C)C)C(C)(C)C)c(O)c(c1)C(C)(C)C , P21/c ,1,0,1.06965469387,0.665745614035
1165, PULTIA , CCOC(=O)C(=CC#N)C1CC1c1ccc(cc1)N(=O)=O , P21/c ,1,0,1.37152763012,0.7088346702320001
1166, IBABIX , COC(C1C(C(=O)OC)C(ON1C)=CC(=O)OC)c1ccccc1 , P21/c ,1,0,1.3160811213299999,0.688455102153
1167, DUDHOA , CC(=NO)C(=O)NN=C(C)c1ccccn1 , Cc ,0,0,1.3254582661799998,0.675236294896
1168, BUZVOH , Cc1ccc(NN=C2C=CC(=O)C3=CC=CC=C2C3)c(c1)N(=O)=O , P21/c ,1,1,1.38274594593,0.700439504558
1169, PEVNUA , CC1(C)OC2C(O)C3CC(C(OCc4ccccc4)C2O1)N(Cc1ccccc1)O3 , P212121 ,0,0,1.24124122027,0.650074404762