ID,name,smiles,space_group,inversion_symmetry,beta_packing,density,packing_coefficient
10951, PUXQUW , CCN1C(=O)C(=NNc2ccc(cc2)N(=O)=O)C(=C(C#N)C1=O)CC , Pc ,0,0,1.4338100587,0.709824046921
10952, DEZROP , CC(=O)C(=NO)C(=O)c1ccccc1 , P21/c ,1,0,1.33662135878,0.6844576082930001
10953, BABRIF , O=N(=O)C1=[N+]([O-])ON=C1c1ccccc1 , Pbca ,1,1,1.54296379804,0.698235232509
10955, XUCSOD , CC(=O)OC1C(OC(C(OC(C)=O)C1OC(C)=O)N(=O)=O)Oc1ccccc1 , P21 ,0,0,1.38357978429,0.666634565999
10957, RUWYEP , CC1(C)CCCC(C)(C)N1OC1CCCC2CC(=NC12)c1ccccc1 , P-1 ,1,1,1.1815436038200002,0.6953932360639999
10958, SUMJIU , Cc1cc(c(C)cc1C1=[N+]([O-])C(C)(C)C(C)(C)N1[O])C1=[N+]([O-])C(C)(C)C(C)(C)N1[O] , P21/c ,1,0,1.22012010813,0.654186299384
10959, CICMAD01 , Oc1ccc(cc1C=NNc1ccccc1)N(=O)=O , P21/c ,1,0,1.40113599829,0.6891912320479999
10960, QIQYIA , CCOC(=O)NN(C1CC=CC1c1ccccc1C(=NO)c1ccccc1)C(=O)OCC , P-1 ,1,1,1.2855378418799999,0.674656824657
10961, ZAYGOY , O=C(CC(=O)NC(CON(=O)=O)(CON(=O)=O)CON(=O)=O)NC(CON(=O)=O)(CON(=O)=O)CON(=O)=O , P21/n ,0,1,1.7140601017,0.713822967812
10962, UXAFEG , CC12C(C(C(C(N(=O)=O)C1(O)CCC2=O)c1ccccc1)N(=O)=O)c1ccccc1 , P21/c ,1,0,1.38602260814,0.693030552738
10963, BEQWAY , CN1C(=NC=C1N(=O)=O)C=NOCc1ccccc1 , P21/c ,1,1,1.45686023372,0.72801161103
10964, IPUTET , CC(C)(C)OC(=O)CC12OC(=O)C(CC1=O)C(C2c1ccccc1)N(=O)=O , P32 ,0,0,1.3517434122299998,0.691260162602
10965, BAJCIY03 , Cc1cc(ccc1N)N(=O)=O , Ia ,0,1,1.4464772063,0.7553893143289999
10966, UZAXIE , O=C(CCC(N(=O)=O)(N(=O)=O)N(=O)=O)OCC(N(=O)=O)(N(=O)=O)N(=O)=O , P21/n ,0,0,1.8686314577599998,0.749005739594
10967, RUXFAT , O=C1CC(C2COC1O2)N1C=C(C(=N1)N(=O)=O)N(=O)=O , P212121 ,0,0,1.68980966614,0.726616847731
10968, HEHZIG , Cc1ccc(cc1)C1=NOC(=C1)CN1C(=O)C2(ON=C(C2C(=O)c2ccccc2)c2ccc(C)cc2)c2ccccc12 , P-1 ,1,1,1.3372101974600001,0.6925766767779999
10969, KOVGIL , CN(C)C(N(C)C)=C(N(=O)=O)N(=O)=O , P21/n ,0,0,1.4121171530399999,0.696504746967
10970, OFEMUI , CC1(C)CC(N)CC(C)(C)N1[O] , P21/n ,0,0,1.11027037396,0.669223190603
10971, SAYVEV , CC(=O)C1=CN(Cc2ccccc2)C=C(C1c1ccc(cc1)N(=O)=O)C(C)=O , C2/c ,1,0,1.37775746129,0.721308423867
10972, FIWFUO , CN(C)CCNC(=O)C1C(CC1c1cccc(c1)N(=O)=O)c1cccc(c1)N(=O)=O , C2/c ,1,0,1.3020365961,0.666963827133
10973, MAPFUF , CCOc1cccc(C=Nc2ccc(cc2)N(=O)=O)c1O , C2/c ,1,0,1.3908923587900002,0.6998123123119999
10974, NIYVUO , COc1ccccc1C(CN(=O)=O)NNC(=O)c1ccc(cc1)N(=O)=O , P21 ,0,0,1.46372131508,0.705265176419
10975, MEWGIG , CC(=O)N(c1ccc(cc1)N(=O)=O)c1ccc(cc1)N(=O)=O , P-1 ,1,1,1.44390016373,0.69163913382
10977, RUVNIH , CN1C(N2C(C(C(C2c2ccccc2)N(=O)=O)c2ccccc2)C1=O)C(C)(C)C , C2/c ,1,1,1.24030496296,0.661856855848
10979, DEGLEH , O=N(=O)c1ccc2N(CCN3CCCCC3)C=Nc2c1 , P-1 ,1,1,1.2713026940899999,0.6600723622779999
10980, NUPJAJ , COc1ccc2ccc(OC)c(c2c1N(=O)=O)N(=O)=O , C2/c ,1,1,1.52946388914,0.7032212885150001
10981, BUGRIF , CCOC(=O)C1=NOC2=C1C(=O)c1ccccc1C2=O , P-1 ,1,1,1.51514124106,0.723058215534
10982, BAWJIT , CC(C)(C(CC(=O)c1ccccc1)C1=CC=CO1)N(=O)=O , P21/c ,1,0,1.27205946899,0.6692783094100001
10984, KEDXEZ , O=N(=O)N=C1NN=NN1CC1=NN=NN1 , C2/c ,1,0,1.7743677689400001,0.7129041195520001
10985, PEZPIV , CC(=O)N1N=C(N2N=C(C)N=C12)c1ccc(cc1)N(=O)=O , Pbca ,1,0,1.4879761936000002,0.701469230021
10986, ESEQOK , O=C(OC1=C2CCCCC2C23CCCC2=Cc2ccccc2C13)c1ccc(cc1)N(=O)=O , P21/c ,1,0,1.3736168918399998,0.719809291238
10987, PAWZEU , CC1=C(C=CC(=O)C=Cc2ccccc2N(=O)=O)C(C)(C)CCC1 , P21/n ,0,0,1.20589159831,0.679898648649
10988, VEDWAF , [O]n1nc2N(N=Nc2n([O])n1)c1ccccc1 , P21/n ,0,0,1.6608606849899998,0.7297248010609999
10989, KEMDUB , CCON=N([O])C(CO)(CO)N([O])=NOCC , P-1 ,1,1,1.3383602021799998,0.580902777778
10990, ZIXTOP , CC1C2C(CON2Cc2ccccc2)CN1Cc1ccccc1 , P21 ,0,0,1.1606334159,0.645087719298
10991, QISNUB , COCOCC1ON2C(=O)CCC3CCCCC23C=C1 , P-1 ,1,1,1.3156231653200001,0.7002713178290001
10992, BANCEA , CC(C)C1C(C(Cc2ccccc2)C(=O)N1Cc1ccccc1)N(=O)=O , P21/n ,0,0,1.2543555084,0.68688677394
10993, ZOGQAN05 , O=N(=O)c1ccc(Cc2cccc(n2)c2ccccn2)c(c1)N(=O)=O , P21/c ,1,0,1.48894232169,0.7248130759870001
10994, NISJUL , O=Nc1cc2CCCN3CCCc(c1)c23 , P21/c ,1,1,1.32350756354,0.703618421053
10995, NBFURX , ON=C1Oc2ccc(cc2C1=O)N(=O)=O , P21/c ,1,0,1.6875557975600002,0.721075221075
10997, BOSWIP , COC(=O)C1ON(C)C(C1C(=O)OC)(C(=O)OC)C(=O)OC , B11b ,0,0,1.47343194259,0.7169811320749999
10998, EGIHEH , CC(C)(C)C(=O)NOCC(C)(C)C(=O)NOCC(C)(C)C(=O)NC1CCCCC1 , P21 ,0,0,1.14799992859,0.64039408867
10999, YIMPOB , OCC(O)C[NH+]=Cc1cc(ccc1[O-])N(=O)=O , P21/c ,1,1,1.44871196503,0.6956088664419999
11000, ZZZFYW02 , O=N(=O)c1ccccc1N(=O)=O , P21/a ,0,1,1.6421569579100002,0.7141995842000001
11003, UWOCAM , COC(=O)C1C(ON=C1c1c(C)cc(C)cc1C)c1cccc2cc3ccccc3nc12 , P-1 ,1,1,1.24557562846,0.647627278441
11004, VAKQOO , CC1(C)CCC(=O)c2nc3ccccc3[n+]([O-])c2c2ccccc2C(=O)O1 , P21/c ,1,0,1.36210987535,0.686688819069
11005, ANIVOJ , ONC(=O)c1cccc2CN(C(=O)c12)c1ccc(OCc2ccccc2)cc1 , P21/c ,1,1,1.4049933391799998,0.7051094366060001
11006, KUMMIP , CC1=CCC(C(N1C(=O)OCc1ccccc1)c1ccccc1)N(=O)=O , Pbca ,1,0,1.2737532532200002,0.6528186274509999
11007, MICHIQ , CN1OCC2CN(c3ccccc3)C3=C(C12)C(=O)c1ccccc1O3 , P21/a ,0,0,1.38130340178,0.699085306272
11008, KIKNAU , CC(C)(C)c1cc(C=Nc2ccc(cc2)N(=O)=O)c(O)c(c1)C(C)(C)C , P21/c ,1,0,1.16018312067,0.636637205387
11010, LOHNUS , CC(C)(CN=Cc1ccc(cc1)N(=O)=O)CN=Cc1ccc(cc1)N(=O)=O , P21/c ,1,0,1.30552020416,0.6804754098360001
11011, BIKNUE , CN1c2ccccc2C2=C1C1(C)N(C)C(=O)C(C2)N(OCc2ccccc2)C1=O , P-1 ,1,1,1.29802662951,0.6784722222220001
11012, GOLVAE , CC(C)(c1ccc2ncccc2c1C#N)N(=O)=O , P21/c ,1,1,1.35941100905,0.682099152291
11013, JECVOF , COC(=O)C12C3C(C(C=Cc4ccccc4)N1C(C(C2c1ccccc1)N(=O)=O)c1ccccc1)C(=O)N(C)C3=O , P21 ,0,0,1.3006259281299999,0.6580972515860001
11014, SOMKOU01 , ON1C(=O)c2ccccc2OC21CCCC2 , C2/c ,1,0,1.4012288454700002,0.7122013788680001
11016, YOWFEX , Cc1cc(C)c(C2N(O)C(c3c(C)cc(C)cc3C)c3c(C)ccc4ccc(C)c2c34)c(C)c1 , P-1 ,1,1,1.18006546706,0.6661413274319999
11017, XERNIS , COC(=O)C1(C)CCCC2(C)C1CCc1cc(C(C)C)c(cc21)N=Cc1cccc(c1)N(=O)=O , P212121 ,0,0,1.23487272823,0.6781945850200001
11018, SALOXM09 , ON=Cc1ccccc1O , P21/n ,0,0,1.8059868673700001,0.8870432375239999
11019, POCYAH , CCCC(=NO)C(C)=NO , P-1 ,1,1,1.20725137591,0.669292076887
11020, TERDOJ , O=C(ON=C(N1N=Nc2ccccc12)c1ccccc1)c1ccccc1 , P21/c ,1,1,1.34704025213,0.686144849303
11021, WEFBEQ , Nc1ccc(cc1NCc1ccccn1)N(=O)=O , C2/c ,1,0,1.34959845537,0.674599799161
11022, FUHTAD , COC(=O)C1(C(c2ccc(cc2)N(=O)=O)C(C(N1c1ccccc1)c1ccccc1)(C(C)=O)N(=O)=O)C(=O)OC , P21/n ,0,0,1.34612692998,0.6691361844520001
11023, UKIGEC , CC=C(C1CC(C)(C)C(=[N+]1[O-])c1ccccc1)c1ccccc1 , P-1 ,1,1,1.12558708982,0.636118598383
11025, HIFYUS , CON=C(C#Cc1ccccc1)c1ccc(OC)cc1 , P21 ,0,0,1.29121401815,0.712226945196
11027, SIPQEO , CC(c1ccccc1)C(C)(COC(=O)c1ccc(cc1)N(=O)=O)C#N , P-1 ,1,1,1.2738229456,0.6713991769550001
11028, OYIBUV , CC1(C)CC(CC(C)(C)N1[O])OC=C , P21/c ,1,0,1.1237444949200002,0.6565246788369999
11029, AZUVOH , O=C(Nc1cccc(c1)N(=O)=O)c1ccc(cc1)N(=O)=O , P21 ,0,0,1.53063269312,0.72930820729
11030, BECZAM , COC(C=C)C(OC(=O)c1ccc(cc1)N(=O)=O)C(C)CC(C)COC(=O)c1ccc(cc1)N(=O)=O , P212121 ,0,0,1.3219340157500001,0.677564808022
11031, BELHIJ , COC(=O)C1=C(C)NC(=C(C1c1ccc(cc1N(=O)=O)N(=O)=O)C(=O)OC)C , P21/c ,1,0,1.52970864466,0.713158769306
11032, EPOVEL , CCOC(=O)C1(CO)ON=C(CC)C1c1ccccc1 , P21 ,0,0,1.27183266449,0.675494071146
11034, VAMBET , O=C1N2CCC(=Cc3ccc(cc3)N(=O)=O)C2=Nc2ncccc12 , P21/c ,1,1,1.48348446603,0.7213634562029999
11035, DEKZEZ , CC(=O)c1c(O)c(cc(c1O)N(=O)=O)N(=O)=O , P21/c ,1,1,1.6964802153100003,0.721639155785
11036, HEXTIN , Cc1c(c(C)c(c(C)c1N(=O)=O)N(=O)=O)N(=O)=O , P-1 ,1,1,1.53425237132,0.704103468548
11037, DAPTIA , COC(=O)C(Cc1ccccc1)NC(=O)c1nccnc1C(N)=NO , P21 ,0,0,1.37962439679,0.6867495711839999
11040, YURHAV , COc1cc(cc(C=CC2=[N+](CCO)c3ccccc3C2(C)C)c1[O-])N(=O)=O , P21/n ,0,0,1.32149416392,0.6797493831970001
11041, BUHFUH , CC1=C(N=Cc2c(O)ccc3ccccc23)C(=NO1)C , P-1 ,1,1,1.32766387391,0.6871021427089999
11043, JERHUK , O=N(=O)C12OC1CCCC2c1ccccc1 , P21/c ,1,1,1.30662679013,0.670572865117
11044, FETNID01 , CCOC(=O)C(=NOC(=O)c1ccccc1)C#N , P21/n ,0,1,1.39643576504,0.7051140833990001
11045, UBENIY , ON=CC(=NO)N1CCN(CC1)Cc1ccccc1 , P21/c ,1,0,1.2874288794600002,0.608203223514
11046, CUTWOD , CC(C)(C)C1=CC(C)(C(=O)C(C)(C1N(=O)=O)N(=O)=O)N(=O)=O , P21/n ,0,0,1.3867152790000001,0.671308503626
11047, EVULAK01 , CCCCNc1c2cccc3C(=O)N(CCCC)C(=O)c(cc1N(=O)=O)c23 , C2/c ,1,0,1.28216882167,0.667775805975
11048, POQQAN , CN(C)c1ccc(cc1)C=[N+]([O-])Cc1ccccc1O , P21/a ,0,0,1.26563556548,0.6852469822439999
11049, VIKVOA , CC1C(C)C1(C(O)=O)N(=O)=O , P21/n ,0,0,1.3717206916999998,0.6762725292139999
11050, DIXGIA , CC1(C)C(CCCC1=NO)=NO , Pnma ,1,0,1.18402407236,0.6978892382680001
11051, OMOMEI , NC(=NOC(=O)c1ccccc1O)c1ccccc1 , Pbca ,1,0,1.40801438229,0.7180425531910001
11052, NICQIC , CN1C(=O)N(C)C(=O)C(=Cc2ccc(cc2N(=O)=O)N(=O)=O)C1=O , P212121 ,0,0,1.63890183044,0.746431463274
11053, UCOWOB , COc1c(C)cnc(C=Cc2cccc(c2)N(=O)=O)c1C , P21/c ,1,1,1.3508499096899997,0.7177067177069999
11055, KIBMUG , CC(C)(C)NC(=O)Nc1ccc(cn1)N=O , P-1 ,1,1,1.3197628845,0.682634408602
11057, PEJBAJ , O=C1OCC2(COC(=O)N2N(=O)=O)N1N(=O)=O , P21/n ,0,0,1.8854846422999998,0.741920374707
11059, HILVEE , C(CCON=Cc1cccc2ccccc12)CON=Cc1cccc2ccccc12 , P21/c ,1,0,1.24111001745,0.6735686612139999
11060, DUNXAM01 , CC1(C)N([O])C(=N([O])C1(C)C)C1=CNc2ccccc12 , Pna21 ,0,0,1.27266183211,0.6651978021980001
11061, YOJQOF01 , CN(C)C=NC1=C(C(c2ccc(cc2)N(=O)=O)C2=C(N)N(C)C(=O)N(C)C2=O)C(=O)N(C)C(=O)N1C , Pbca ,1,0,1.37553236139,0.6727412308159999
11064, IXIJEG , COC(=O)C(O)(Cc1ccc(cc1)N(=O)=O)C#CC(C)(C)C , P21/c ,1,1,1.2275117867,0.653595616104
11065, SAHFEP , ON=CC(=NN=Cc1ccccc1O)c1ccccc1 , Pna21 ,0,1,1.2935626152,0.667929089444
11066, SEJDER , COC(=O)C1C(ON=C1c1c(C)cc(C)cc1C)C12CC3CC(CC(C3)C1)C2 , P-1 ,1,1,1.23086698945,0.6726181381640001
11067, MIHTUU , CCOC(=O)c1ccccc1[N+]1=NOC(=O)C1=C(C)[O-] , P21/n ,0,0,1.480688649,0.718558095965
11068, VIZJAQ , CC1(C)C(O)OC(=O)c2cc3c(cc12)C(=O)OC(ON(=O)=O)C3(C)C , Pbca ,1,0,1.40704034835,0.664551824169
11069, XEPYUN , CC1(C)OC2C(O)C(C(C(O1)C2=O)C1=CC=CO1)N(=O)=O , Pna21 ,0,0,1.3988424720700001,0.663867183152
11071, JUKJIK , COc1cc2CCN3C(c2cc1OC)C1(CC3=O)CC(=NO1)c1ccc(C)cc1 , P21 ,0,0,1.34071860788,0.695921632908
11072, XAZGAI , O=C1Cc2cc(ccc2O1)N(=O)=O , P21/c ,1,1,1.5951951918599998,0.727608494922
11073, DORYOA , NN1N=C(C(=C1N(=O)=O)N1N=C(C(=C1N(=O)=O)N)N(=O)=O)N(=O)=O , P21/n ,0,0,1.87422727523,0.7333893921439999
11074, MNPYDO14 , Cc1cn([O])ccc1N(=O)=O , P212121 ,0,0,1.51815857986,0.7222467011429999
11075, KOXBUW , CC(=NNC(=O)C(=NO)c1ccccn1)c1ccccn1 , P21/n ,0,1,1.46479003231,0.7364007965620001
11076, JURPOB , OCC1CC2C(CC(OC3CCCCC3c3ccccc3)ON2O1)OC(=O)c1ccccc1 , P1 ,0,1,0.6534539624319999,0.345707248417
11077, AKUWAE , CCCC#CC1=C(CC)C(C(CC)C(=O)C=C(CCC)O1)c1ccc(cc1)N(=O)=O , P212121 ,0,0,1.16577020759,0.667203505122
11078, ZEXKEU , NC1=NN=NN1O , Cc ,0,0,1.6948255241299999,0.7075756536059999
11079, CACNIG , OC(CC1=CN=C(O1)c1ccccc1)c1ccccc1N(=O)=O , Pbca ,1,0,1.35225605942,0.6727105006919999
11080, GAYXUB , COC(=O)c1ccc(NC(=O)c2ccc(cc2OC(C)C)N(=O)=O)cc1OC(C)C , P-1 ,1,1,1.28012742937,0.663730299551
11081, GAQDAG , COc1nc(nc(n1)C(=NO)N(=O)=O)N1CCOCC1 , P21/c ,1,0,1.53486846656,0.705830938697
11083, IXAHIY01 , ON(CCc1ccccn1)CCc1ccccn1 , P212121 ,0,0,1.2504169650599999,0.6882239846189999
11084, SOYMEZ , OCCCCCCOc1ccc(cc1)N(=O)=O , P-1 ,1,1,1.33473162298,0.7119722382879999
11085, HOHMEW , CCN(CC)c1ccc(N=Nc2ccc(cc2)N(=O)=O)c(C)c1 , P21/a ,0,0,1.2381410917,0.666314935065
11086, MENPHL , O=C(OC1C2CCC1C1C3CC(C=C3)C21)c1ccc(cc1)N(=O)=O , P21/n ,0,1,1.30408119845,0.661362273204
11087, DOBYOJ , O=C1OCCC21CCC=[N+]2[O-] , P21/c ,1,0,1.46431549576,0.72684729064
11089, COGMOB , OC1COC(OC1C(O)CN(=O)=O)c1ccccc1 , P21 ,0,0,1.41299390762,0.6935286935289999
11090, IDOXIJ , O=C(NNc1ccccc1)c1cc(cc(c1)N(=O)=O)N(=O)=O , P21/n ,0,0,1.5212192811399998,0.712406408857
11091, FATZAD , CON(OC(C)=O)C(=O)c1ccc(cc1)N(=O)=O , P-1 ,1,1,1.47663316794,0.708757836991
11092, AZIQIJ , CC1=C(N=CN1c1ccccc1)N(=O)=O , Pna21 ,0,0,1.4376003027200002,0.722899159664
11094, CUZMUF , CN1C=C(C=N1)N(=O)=O , P21/c ,1,0,1.4527948343500001,0.691778465772
11095, ONITPH , Oc1ccccc1N(=O)=O , P21/a ,0,1,1.4934138623500002,0.7001443001440001
11097, AROFUI , CNC(=NN1C=NN=C1)C1=NOC(=N1)C , Fdd2 ,0,0,1.39556110678,0.665174897119
11098, FIJVEB , Cc1ccc(CN2OC(C)(C)C3COc4ccc5C(=O)C(=COc5c4C23)C)cc1 , P21/c ,1,0,1.26869025192,0.663381177326
11099, KESXAK , CN1OC(N2C=Cc3ccccc23)C(=C)C1C(=O)Nc1ccccc1 , Pbca ,1,0,1.31648231505,0.6887332528319999
11100, COMGEQ , CC1=C(Oc2ccc3ccccc3c12)N(=O)=O , P21/n ,0,0,1.42652685845,0.710412335412
11101, MOZQIC , CCCON=C(CN1C=Nc2ccccc12)C1=CC=CO1 , P21/c ,1,0,1.28643576395,0.6906548961660001
11102, NEQFAS , CC(=O)N1CCCC1C1CCCN1c1c(cc(cc1N(=O)=O)N(=O)=O)N(=O)=O , P212121 ,0,0,1.46072151491,0.696693182565
11104, YAHJUN , CC(=O)Nc1ccc(c(C)c1N(=O)=O)N(=O)=O , P21/c ,1,1,1.4632872134200001,0.6821625492300001
11105, YICNUT , CCN(CC)c1ccc(cc1)N=Cc1cccc(c1O)N(=O)=O , P21/n ,0,0,1.3018143647700002,0.680529391411
11106, ZAGMID , CC(C)(C)c1cc(c(N=C=C2C(=O)ON=C2C(C)(C)C)c(c1)C(C)(C)C)C(C)(C)C , P21/a ,0,0,1.17508339319,0.649027371129
11107, GIRKEY , O=C1OC2(COC(=O)c3cccc(c3)N(=O)=O)CC3CCCN3C2=C1 , P-1 ,1,1,1.4487460633200002,0.707323865219
11108, JABMAD01 , O=N(=O)N1C=C(C=N1)N1C=NN=N1 , Pbca ,1,0,1.7283642659599998,0.736313021961
11109, IRAGAJ , COc1ccc(CCC2=C[N+](=NO2)[O-])cc1 , P21/c ,1,0,1.3242460716,0.6775879327600001
11110, TIFWOX , Nc1ccccc1C(=O)C=Cc1ccc(cc1)N(=O)=O , P21/n ,0,0,1.3679789366600001,0.6874932126700001
11111, HIHWAW , COC(=O)c1c(C)nc(C)c(C(=O)OC)c1c1cccc(c1)N(=O)=O , P21/c ,1,0,1.3748792737900002,0.6834444269490001
11113, CIJBAA , O=N(=O)c1ccc2nc(nc(c3ccccc3)c2c1)c1ccccc1N(=O)=O , P21/n ,0,0,1.45719534398,0.69887037037
11114, KIHTEC , CC(C)(C)OC1C(OC(C)(C)C)C2(CCCC2CO)N([O])C21CCCC2CO , P21 ,0,0,1.18315960121,0.679706567942
11116, DECFAT , CC(C)C(c1ccc(cc1)c1ccccc1)N(=O)C(C)(C)C , P21/c ,1,0,1.16860486543,0.7022411682780001
11117, DUJGIZ , CC1=C(C=NO1)C(O)=O , Pnma ,1,1,1.4655978130899998,0.682808908615
11118, NORCED , O=N(=O)c1cccc(Oc2ncccn2)c1 , Pbcn ,1,0,1.4855168630899998,0.7008393309759999
11119, XUSPIL , CC(C)(C)c1cc(CN2CCCCC2)c(O)c(C=NO)c1 , C2/c ,1,1,1.1889994422299999,0.679563931348
11122, PIGSOP , O=N(=O)c1cc(c(N2C=C(N=C2N(=O)=O)N(=O)=O)c(c1)N(=O)=O)N(=O)=O , P21/n ,0,0,1.74760196999,0.70338297729
11123, DATNBZ01 , Nc1c(cc(c(N)c1N(=O)=O)N(=O)=O)N(=O)=O , Pc ,0,0,1.8528630827900001,0.7581367839990001
11127, XAQTUF , CC1(C)C2CCC31C(C2)OC(=O)N3C(=O)C=NO , P212121 ,0,0,1.3575811703799998,0.687795065221
11128, AQIKEQ , CC1(C)N=C(N2C=CN=C2)N([O])C1(C)C , P21/n ,0,0,1.25246784331,0.670183550511
11129, CETRUQ , CC1(C)N([O])C(=[N+]([O-])C1(C)C)c1ccc2C(=O)c3ccccc3C(=O)c2c1 , P21/c ,1,0,1.36784073841,0.699147869674
11130, WALXAI , C1CC2C(ON=C2C2(C1)NC2c1ccccc1)c1ccccc1 , P21/n ,0,0,1.25307387859,0.680877192982
11131, JOPNAD , O=N(=O)[N-][N+]12CC[N+](CC1)(CC2)[N-]N(=O)=O , Pb21a ,0,0,1.60997685273,0.7389155435539999
11134, LEWCUO , NC1=NO[N+](=C1C1=NO[N+](=C1C1=[N+]([O-])ON=C1N)[O-])[O-] , P21/c ,1,0,1.8324710602,0.725734760522
11135, HEJMEQ , CCOC(=O)C1C2C(=O)N(C(C(C)(C)C)C32OC1(OCC)C(=N3)c1ccc(cc1)N(=O)=O)c1ccc(OC)cc1 , P-1 ,1,1,1.30468113395,0.666522593725
11137, SUYREK , COC(CN1CCNC1=CN(=O)=O)OC , P21/c ,1,0,1.41425967706,0.7203633275489999
11140, SOBWEM , O=N(=O)C(=CC1=[N+]([O-])OC(C1)c1ccccc1)c1ccccc1 , P21/n ,0,0,1.38174437784,0.6913085261380001
11141, XIYWIL , CCCC1c2cc(C(CCC)c3cc4C(CCC)c5cc(C(CCC)c6cc1c1Oc7cc(Oc3cc4Oc3cc(Oc6c1)c(cc3N(=O)=O)N(=O)=O)c(cc7N(=O)=O)N(=O)=O)c(OC(=O)c1ccccc1)cc5OC(=O)c1ccccc1)c(OC(=O)c1ccccc1)cc2OC(=O)c1ccccc1 , P21/n ,0,0,1.2797580791299998,0.649187866579
11142, AMATAL , CC(C)(C)OC(=O)N1C2C3Oc4ccccc4C(=O)C3C1N(OCc1ccccc1)C(=O)N2OCc1ccccc1 , P-1 ,1,1,1.26115100909,0.640017117958
11144, VALWOW , CN(CCON(=O)=O)N(=O)=O , P21/c ,1,0,1.59903827981,0.721381360607
11145, TNOXYL , Cc1c(cc(c(C)c1N(=O)=O)N(=O)=O)N(=O)=O , Pbcn ,1,0,1.63409042588,0.7309215567649999
11146, EVADIP , Cc1cccc(c1)C1=CC(=NO1)c1ccccc1 , P212121 ,0,0,1.2741018845,0.6870308435529999
11147, HEVZEP , CC(NC(=O)OC(C)(C)C)C(=O)Nc1cccc(c1)N(=O)=O , P1 ,0,1,1.3392092632700001,0.681210017163
11148, XOKTAS , Cc1ccc(cc1)C1C(C(c2ccc(C)cc2)C(C#N)(C#N)C(=C1C#N)N)N(=O)=O , P21/a ,0,0,1.23865750612,0.603834520579
11150, EXETEI , COC(=O)CC1=NN2C=CC=C(C2=NC1=O)N(=O)=O , P-1 ,1,1,1.60181346289,0.71664917279
11151, EQETUQ , O=C1C(C(CC2(NCCN12)c1ccccc1)c1ccccc1)N(=O)=O , P21/c ,1,0,1.37698178809,0.721264367816
11152, ZIBVAH , CC1OC(OC(C1C)c1ccccc1)c1ccc(cc1)N(=O)=O , P21/c ,1,0,1.397835291,0.668747765995
11153, EBUSEC , CC(=C)C(=O)OCC[N+](C)(C)[O-] , P21/c ,1,0,1.23038489786,0.698692037201
11154, JEGTEX , COC(=O)C1CC2=C(Nc3ccccc23)C(N1)c1ccccc1N(=O)=O , P212121 ,0,0,1.3483921048299998,0.6672863204689999
11155, IGAZEX , CCOC(=O)c1ccc(c2OC(=Cc12)c1ccccc1N(=O)=O)c1ccccc1 , C2/c ,1,1,1.33635420085,0.669046846262
11157, LIFJIV , CN1c2cccc3cccc(N(C)C1(C)c1ccc(cc1)N(=O)=O)c23 , P21/n ,0,0,1.3121206682700002,0.67846361186
11158, YEJJEF01 , COc1ccc(cc1)C#Cc1ccc(cc1)N(=O)=O , P21/n ,0,0,1.37573184894,0.712863800883
11159, NEHVUT , CC(C)(C)N([O])c1cc(ccc1OCCOCCOCCOc1ccc(cc1N([O])C(C)(C)C)c1ccccc1)c1ccccc1 , P21/c ,1,0,1.25054073799,0.6946834908399999
11160, DAJWER , CC1OC2=NON=C2N=NC2=NON=C2OC(C)C(C)OC2=NON=C2N=NC2=NON=C2OC1C , P21/c ,1,0,1.4643419683899999,0.711080586081
11161, KUMTIX , CC1(C)CCCC(C)(C)N1OC1C(O)C2(C)CCC1C2(C)C , P21212 ,0,0,1.13413520605,0.67628849889
11162, FORSAI , Cc1c(cc(cc1N(=O)=O)N([O])=NN(=O)=O)N(=O)=O , P21/n ,0,0,1.70475634135,0.7237951265160001
11163, ATUTUE , COC(=O)c1cc(ccc1NC(C)=O)N(=O)=O , Ibam ,1,0,1.4304626840299999,0.707384833451
11164, NEGKES , CC(C)(C)C1=NN(C(=C1)N)c1ccccc1N(=O)=O , P21/c ,1,0,1.2706241894799999,0.660185279446
11165, ZEHJUR01 , CC(=NN=C(C)c1ccc(cc1)N(=O)=O)c1ccc(cc1)N(=O)=O , P-1 ,1,1,1.45100007594,0.7210802700679999
11167, HIZHIJ , O=C(OCc1ccc(cc1)N(=O)=O)c1ccc(cc1N(=O)=O)N(=O)=O , P21 ,0,0,1.61003384623,0.7340655825110001
11169, QEPBUK , C1C(ON=C1c1ccccn1)C1CC(=NO1)c1ccccn1 , C2/c ,1,1,1.42658474769,0.718484031692
11170, RUSWAF , COC(=O)C1(CCOC1=O)C(CN(=O)=O)c1ccccc1NC(=O)OC(C)(C)C , P212121 ,0,0,1.2632198323700001,0.630372409796
11171, MIXFOQ , CC1(C)OCC2(C)C(CCC3(C)C(CC=C4C(COC4=O)Oc4ccc(cc4)N(=O)=O)C(=C)CCC23)O1 , P21 ,0,0,1.2552269397799998,0.6614544552
11172, OCEREV , CC1(C)CC(=C(C(C=Cc2ccccc2N(=O)=O)C2=C(O)CC(C)(C)CC2=O)C(=O)C1)O , P-1 ,1,0,1.25635929765,0.672916666667
11174, VIGWOY , CC1(CCOCc2ccccc2)COC(=O)C1(OC(=O)c1cc(cc(c1)N(=O)=O)N(=O)=O)C#C , P212121 ,0,0,1.3987405102200001,0.684536764392
11175, LOCCEN , Cc1ccc(cc1)C(=O)OCC1OC(CC1OC(=O)c1ccc(C)cc1)N1C=C(C=N1)N(=O)=O , P212121 ,0,0,1.34425351175,0.6689215901600001
11176, QIHKIE , CN(c1ccc(cc1)N(=O)=O)c1c(C)cccc1C(C)(C)C , P-1 ,1,1,1.25353055471,0.6921132457029999
11177, JUBKAU , COC(=O)C(C(C=NO)C1CCCCC21CCCN(Cc1ccccc1)C2=O)C(=O)OC , P1 ,0,1,1.2671227009000001,0.667528957529
11179, XAHQUV , CC1=NN(c2ccccc2)C2=C1C(C(CO2)N(=O)=O)c1ccccc1 , P212121 ,0,0,1.3669124554700003,0.702113510857
11181, ZUPMOO , CCC(OC(=O)c1cc(cc(c1)N(=O)=O)N(=O)=O)C12C3CC(C=C3)C1(C)C2C(=O)OC , P-1 ,1,1,1.4104838007700002,0.704926690293
11182, FEFPEM , O=N(=O)c1ccc(Oc2ccccc2)cc1 , P21/c ,1,0,1.42490329612,0.7144230769230001
11183, JADKIJ , COC(=O)C1CC(C(NC(=O)OC(C)(C)C)C(C)C)N(Cc2ccccc2)O1 , P212121 ,0,0,1.13833310707,0.6253374417149999
11184, NEFGOX , Cc1ccc(cc1)C1=NOC(=N1)Cc1ccccc1C(O)=O , P-1 ,1,1,1.38683894667,0.7101004061599999
11185, GUXMUJ , CC(=O)N(CC(=O)N(CC(N)=O)c1ccccc1)c1ccc(O)c(c1)N(=O)=O , P21/c ,1,0,1.4736125017,0.722916666667
11186, BODFEF01 , NC(CC(N)=NO)=NO , C2/c ,1,1,1.52277703929,0.723258505599
11189, OSIGAZ , CC(C)(C)N([O])C1=N([O])C(C)(C)C(C)(C)N1[O] , R-3 ,1,0,1.14577088629,0.637916117951
11190, VIYNAU , None , P21/m ,0,1,1.41621378604,0.7224489795919999