ID,name,smiles,space_group,inversion_symmetry,beta_packing,density,packing_coefficient
8435, AYUYIC , CC1(C)N([O])C(=N([O])C1(C)C)C1=Nc2cc3ccccc3cc2N1 , Pca21 ,0,0,1.26520230565,0.666477062523
8437, NEKLAS , C[NH+]=C1N([O-])C=CC(=C1C)N(=O)=O , C2/c ,1,1,1.54917690599,0.760073260073
8438, FOBNIU , O=C1CCC(=O)N1c1ccccc1N(=O)=O , P21/c ,1,0,1.52616801692,0.72640605538
8439, SOSYAC , CC(CN1C(=NC=C1N(=O)=O)C)OC(=O)c1ccccc1C(O)=O , P21/c ,1,0,1.43934352629,0.6975204081630001
8440, JAXFUM , CC(=O)N1N=Cc2ccc(cc12)N(=O)=O , P21/c ,1,1,1.52022203569,0.7173394651680001
8442, ICEREQ , CC1ON(C)C(c2ccccc2)C2=CC3=C(CCCC3)N12 , P2/c ,1,0,1.24116763505,0.6846138211380001
8443, FELTUO , O=C(OOC(=O)c1cc(cc(c1)N(=O)=O)N(=O)=O)c1cc(cc(c1)N(=O)=O)N(=O)=O , C2/c ,1,0,1.7502583597299999,0.733447026631
8444, ZUTNUX , CC1ON(CC=C1)C(=O)C(O)c1ccccc1 , P21/c ,1,0,1.28908432668,0.7008407122079999
8445, SAPSOU , COc1ccccc1C(C=C)C(O)c1ccc(cc1)N(=O)=O , P212121 ,0,0,1.26465554891,0.657411934985
8446, NUSLUI , CC(C)(C)OC(=O)N1C(C(OC(=O)c2ccc(cc2)N(=O)=O)C1=O)C1OC1(C)C , P21 ,0,1,1.2676716758,0.575979205241
8447, MUTGAL , CCOC(=O)C1=C(CC(N(C1c1ccc(cc1)N(=O)=O)c1ccc(C)cc1)c1ccc(cc1)N(=O)=O)Nc1ccc(C)cc1 , P-1 ,1,1,1.26897267278,0.6424348607370001
8449, VIFBUK , CCOC(=O)C(=NO)C(=Nc1ccccc1)c1ccccc1 , P21/c ,1,1,1.3157935197700001,0.6902710843369999
8450, FUJBOC , CC1(C)C(=O)N(Cc2ccccc2)C2(CC(=NO2)C2COC3(CCCCC3)O2)C1=O , P212121 ,0,0,1.34621570657,0.7025691244239999
8451, YIKBUP , OC1OCC(C1O)(N(=O)=O)N(=O)=O , P1121/n ,0,0,1.7923013022099998,0.7452613315979999
8452, HPIOXZ11 , O=C1CC(=NO1)c1ccccc1 , P21/n ,0,0,1.44773067238,0.735216931217
8453, XUBMEM , CCOC(=O)C1(O)OC(=C(C1c1ccccc1N(=O)=O)C(=O)OC(C)(C)C)C , P21/c ,1,1,1.3191396072600001,0.674386820331
8454, YUXNUB , CCCCCCCCOc1cc(NC(=O)c2cc(OC)cc(c2OC)N(=O)=O)c(OC)c(c1)C(=O)Nc1cc(OC)cc(C(=O)OC)c1OC , P-1 ,1,1,1.3339145056000001,0.68091222031
8455, UJEREG01 , O=N(=O)c1ccccc1N=[N+]=[N-] , P-1 ,1,1,1.55539667898,0.716856330014
8456, JOFWIK , CC(=O)CCN1OC(CC21OC(COC(c1ccccc1)(c1ccccc1)c1ccccc1)C1OC(C)(C)OC21)C(C)=O , P21 ,0,1,1.2306776538700002,0.680166447963
8457, RENDOF , CC(C)C1COC(=O)N1C(=O)C(C)=CC(C)C(O)c1ccc(cc1)N(=O)=O , C2 ,0,1,1.32418629159,0.689491039427
8458, SOGVOZ , CN1NC(C)(C)N2C=NC(=C2C1=O)N(=O)=O , P21/c ,1,0,1.44127339816,0.693686557531
8459, IWATOR , CCOC1=CC2=[N+]([O-])C(C)(C)[N+](=C2C=C1)[O-] , P21/c ,1,0,1.37903174086,0.714728925316
8460, EHOKAN , CC1OCC(O)C(O1)C1CC(C2OC(C)OCC2O)N(Cc2ccccc2)O1 , P21 ,0,0,1.28575982011,0.665833430504
8461, NPOXBZ11 , CCCCCCCCOc1ccc(cc1)C(=O)Oc1ccc(cc1)N(=O)=O , P21/c ,1,0,1.28545548179,0.690696064569
8463, IVOPUE , CC(=O)Oc1c(C)c(C)c2OC(C)(C)CCc2c1C1=NOC(C1c1ccccc1)c1ccccc1 , P21/c ,1,0,1.21334677637,0.652900013661
8464, HUJXIV , OCCC1CCN2C=C(N=C2O1)N(=O)=O , P212121 ,0,0,1.50096006258,0.7271831101620001
8465, MOSCIH , O=N(=O)N=C1NN=NN1CCN1N=NNC1=NN(=O)=O , P21/n ,0,0,1.81522093586,0.7438347635420001
8466, ULEDEV , CCCCCCCCN1C(=O)Nc2cc(ccc12)N(=O)=O , P-1 ,1,1,1.2841167134,0.685418719212
8468, OJEYUZ , COc1ccc(cc1)C1=NOC(=C1)C1CC(=O)C1 , P21 ,0,0,1.38803255685,0.727364927162
8469, CASBOQ , O=N(=O)C1=CNN=C1N1C=NN=N1 , P21/c ,1,0,1.8126679220700002,0.763531144781
8470, TUJPUL , CC(=O)OCc1ccc(c(N)c1)N(=O)=O , C2/c ,1,0,1.4408085029100002,0.70960192382
8471, GUPSUH , CON(C)c1nc2ccc(OC)cc2cc1C(=O)OC , P212121 ,0,0,1.3273681736399998,0.679881008828
8472, SEGFOA , Cc1cc(C(C)=O)c(O)c(c1)N(=O)=O , Pcca ,1,0,1.4565800117200003,0.75011187449
8474, CUCLES , O=N(=O)c1ccc2OC3=NC(=C(N3Cc2c1)c1ccccc1)c1ccccc1 , P21/n ,0,0,1.4202945576600001,0.7140119098559999
8475, LIGGAL , COC(C)C(Cc1ccc(cc1)N(=O)=O)(OC)C1CCC(CC1)C=C , P-1 ,1,1,1.20886361044,0.664650294932
8476, EYABEL , CC1(CCC(C)(N1[O])c1ccc(O)cc1)c1ccccc1 , P212121 ,0,0,1.2369116482,0.67322964753
8477, QUFSAN , O=C(Nc1cc(cc(c1)N(=O)=O)N(=O)=O)Oc1ccccc1 , P21/c ,1,0,1.5257239192899998,0.700381926083
8478, UFIMEE , OCC(=Cc1ccc2OCOc2c1)N(=O)=O , P-1 ,1,1,1.48248794598,0.695786647993
8479, CAJXIX , CC(C)(C)N=N([O])C1=NON=C1N=NC1=NON=C1N([O])=NC(C)(C)C , P21/c ,1,0,1.30017952616,0.6353187042840001
8480, XINJEJ , CC1(O)CC23OC(C)(O)CC2(O1)c1cc(ccc1c1ccccc31)N(=O)=O , C2/c ,1,0,1.39168369977,0.671127331711
8481, HIBRIW , C=C(C(C(c1ccccc1)C1=C(C=O)C=CO1)c1ccccc1)N(=O)=O , P212121 ,0,0,1.25091762399,0.647411616162
8482, HABDUK , CC(C)(c1ccc(cc1)N(=O)=O)c1ccc(cc1)N(=O)=O , P21/c ,1,0,1.37358803426,0.642166279298
8483, METNAM01 , CN(C)N(=O)=O , P21/m ,0,1,1.3633319870200002,0.6820546778919999
8484, REZYIH , COC(=O)C1(CC(OC1=O)c1ccccc1)C1=NOC(C)(C)CC1c1ccc(OC)cc1 , P21/n ,0,0,1.31532477683,0.690624338624
8485, YEBDOA , CC(N=C(C=NO)c1ccccc1)c1ccccc1 , P21/c ,1,0,1.1823817246,0.648767921147
8486, XUXFOM , CC(C)(C)OC(=O)NC(Cc1ccccc1)C(=O)NC(C)(C)C(=O)Nc1cccc(c1)N(=O)=O , P21/n ,0,0,1.26588650972,0.658796484454
8487, EWIJIE , CN(C)C1C2CC=CC(=C2C(=O)C2=C1ON=C2OCc1ccccc1)O , P212121 ,0,0,1.37311087643,0.705450562977
8488, MEQFAS , COC(=O)C(C)ON1C(C)(C)C(=O)N(CC21CC(C)CCC2C(C)C)C(C)C , P212121 ,0,0,1.1234491679799998,0.650294412847
8489, TUNQAU , ON=C1C(Nc2ccccc12)=C1C(=O)Nc2ccccc12 , R-3 ,1,0,1.3394602253899999,0.615694939102
8490, HUFFEU , O=C(N1CC(C1)(N(=O)=O)N(=O)=O)c1ccccc1 , P21/c ,1,0,1.5036702279799998,0.7035845588240001
8493, IKAXEY , CC(C)(C)OC(=O)COc1ccc(cc1)N(=O)=O , C2/c ,1,0,1.3222306947600002,0.6841075556499999
8494, DATLEP , O=C(OC1C=CC23CCCCC12C=CC=C3)c1cc(cc(c1)N(=O)=O)N(=O)=O , P-1 ,1,1,1.39436465669,0.6915103967339999
8495, DUCLIY , CCC1(CC)C2=CC=C(N2)C2(CCCCC2)C2=CC=C(N2)C(CC)(CC)C2=CC=C(N2)C(C)(C2=CC=C1N2)c1ccc(cc1)N(=O)=O , P-1 ,1,1,1.17674460801,0.641178417742
8496, EZICUM , CCCc1ccc(cc1)N=Cc1cc(ccc1O)N(=O)=O , P-1 ,1,1,1.28397976562,0.665566391598
8498, LEPCIU , OC(=O)CN1C=CN=C1N(=O)=O , P21/n ,0,0,1.67967089528,0.739293480673
8500, CAZBZO10 , [O-][N+](=[N+]([O-])c1ccccc1)c1ccccc1 , Pbcn ,1,0,1.29767381441,0.6716200879559999
8502, TORMUJ , CCC1C(C(c2ccccc2)C(C#N)(C#N)C(c2ccccc2)C1(C#N)C#N)N(=O)=O , P21/n ,0,0,1.2304663522600001,0.639016302846
8503, AWOBAR , O=N(=O)c1ccc(cc1)C(c1ccc(cc1)N(=O)=O)=C(c1ccc(cc1)N(=O)=O)c1ccc(cc1)N(=O)=O , P42/n ,1,0,1.27807839883,0.6108617647060001
8505, VEGJIA , CC(=O)OCC(OC(C)=O)C(OC(C)=O)C(OC(C)=O)C(OC(C)=O)C1C2CC(C=C2)C1N(=O)=O , P21 ,0,0,1.29350148623,0.640725074868
8506, COMPEA , CC1(C)N([O])C(=[N+]([O-])C1(C)C)C1=CNC(=O)NC1=O , P-1 ,1,1,1.43025423741,0.701437621832
8507, SAGJAN , COc1ccc(cc1N(=O)=O)c1ccccc1 , Pbca ,1,0,1.37049541779,0.697401793036
8508, FABDOB , CN1CCCC2C(CCCC12)OC(=O)c1cc(cc(c1)N(=O)=O)N(=O)=O , Pbca ,1,0,1.3795174015600002,0.680632810807
8509, OKEBUC , O=C(C=Cc1ccccc1)C1=C(OC(C1c1ccccc1)N(=O)=O)C=Cc1ccccc1 , P-1 ,1,1,1.33465719073,0.700869366278
8510, LIGVED , CC1(C)OC23CC4OC(CC2(CC(=O)C1C3)O4)OC(=O)c1ccc(cc1)N(=O)=O , P212121 ,0,0,1.4329256530899999,0.6984545875049999
8511, CAFSAG , O=N(=O)c1ccccc1C=CC(=NNc1ccccc1)c1ccccc1 , P21/n ,0,0,1.3106589489899998,0.68234925747
8512, IWONOY , CC(C)COC(=O)c1ccc(NC(=O)c2ccc(c(OCC(C)C)c2)N(=O)=O)c(OCC(C)C)c1 , P-1 ,1,1,1.27306169032,0.681507575579
8513, OYAJOO , O=C(OC1=C(N(Cc2ccccc2)c2ccccc12)c1ccc(cc1)N(=O)=O)c1ccccc1 , P21/c ,1,0,1.32868021533,0.67777913544
8514, MFXCMA , CN(C)C(=O)C1=NON(=C1C)[O] , Pbca ,1,0,1.3807679334399998,0.681277117525
8515, ESUJAF , CCOC(=O)C(CC)(C(CN(=O)=O)c1ccccc1)N(=O)=O , P212121 ,0,0,1.32317173456,0.6982507583419999
8516, IQEZIO , O=N(=O)c1ccc(cc1)C1=CC2C(=CC=C1)C=C(c1ccccc1)C2(C#N)C#N , P21/c ,1,0,1.36620505277,0.7090776645579999
8517, NABMAE , Nc1c(cc(c(O)c1N(=O)=O)N(=O)=O)N(=O)=O , P21/n ,0,0,1.82276380591,0.7384755973739999
8518, MIHCUE , CC1CCC(OC(=O)c2ccc(cc2)N(=O)=O)C2=CCC(=CC12C)C(C)=O , P212121 ,0,0,1.32610382168,0.702063106796
8519, FIDGUV , CC(=O)C1=C(O)C(=C2C3C(CCCCCCCC3=O)ON2C1=O)c1cc(c(O)c(c1)C(C)(C)C)C(C)(C)C , P21/n ,0,0,1.2320365284600001,0.674060628265
8520, LUFQIO , CC1(C)CC(CC(C)(C)N1[O])OC(=O)C=C , P21/c ,1,1,1.22484907997,0.69184233794
8521, YIHLEI , NC(=NO)C1=NC(=NN1)N=[N+]=[N-] , P21/c ,1,0,1.57610065304,0.677237237237
8522, ACOWOE , O=CN1CC(C1)(N(=O)=O)N(=O)=O , P21/c ,1,0,1.67769592575,0.7309651299459999
8523, UMOTUM , CC1=Nc2ccccc2C(=O)N1O , P21 ,0,0,1.4961715536000002,0.743299253938
8525, DOJHEP , COC(=O)CCC(C=NO)C(C)(CC(=O)N(C)C)C#C , P212121 ,0,0,1.1615981474600001,0.645999725942
8526, GIVHOJ , O=C1CCC(C(N1)c1ccccc1)N(=O)=O , P21/n ,0,0,1.4186550856600002,0.709889888159
8527, BAWTEB , CC1C=C(C=O)C(c2ccccc2)C2(COc3ccccc3C12)N(=O)=O , P21 ,0,0,1.35112698104,0.699970028737
8528, CIRLEW , C=C1CC(N(=O)=O)C2(CCc3ccccc23)C1C#N , P212121 ,0,0,1.327608574,0.69786158441
8529, KOKDAP , O=C1C2C(CN1c1ccc(cc1)N(=O)=O)ON(C2c1ccccc1)c1ccccc1 , Pc21b ,0,1,1.36635824608,0.647335694608
8530, JIJCOU , COc1ccc(cc1)N=N([O])c1ccccc1 , P21 ,0,0,1.45757308804,0.752609134777
8532, FAWLIB , CC1=CC(=NO1)C(=O)NCC=Cc1ccc2OCCOc2c1 , Pbca ,1,0,1.3419948228899998,0.6922526315790001
8533, SAKDIR , CC1(O)C(=O)CC2CCCCC12N(=O)=O , P212121 ,0,0,1.32945323634,0.6763325825830001
8537, XABCUB , O=C(OCC(N(=O)=O)(N(=O)=O)N(=O)=O)c1cc(c(cc1N(=O)=O)C(=O)OCC(N(=O)=O)(N(=O)=O)N(=O)=O)N(=O)=O , P21/c ,1,0,1.8043313829499998,0.714575620458
8538, WIJRAI03 , CC1(C)CC(CC(C)(C)N1[O])N=Cc1ccccc1 , P21/c ,1,0,1.16519454376,0.671196223739
8539, FONZEO , Cc1ccc(cc1)C(CN(=O)=O)C1N=C2C3CCC(C)(C2OC1=O)C3(C)C , P212121 ,0,0,1.24690482967,0.66138367805
8540, JIPNIF , [O]N1=C2C(=NO1)C(=CC(=C2N(C=O)c1ccccc1)N(=O)=O)N(=O)=O , I-4 ,0,0,1.58454934871,0.689571341357
8541, OLIHIA , COC(=O)C=C(Nc1ccccc1N(=O)=O)C(=O)OC , P21/n ,0,0,1.40899672042,0.677232238959
8542, ENAKUA , Cc1cccc(c1)c1cc(cc(c1O)c1cccc(C)c1)N(=O)=O , P21/c ,1,0,1.33981708942,0.7062210391399999
8543, REWFAA , CC(C)OC(=O)C1=C(C)NC(=O)N(C1c1cccc(c1)N(=O)=O)C(=O)N(C)C , P-1 ,1,1,1.24582869924,0.620211640212
8544, QUMYOO , COC(=O)CC(NC(=O)c1cc(cc(c1)N(=O)=O)N(=O)=O)C(=O)OC , P212121 ,0,0,1.45660374745,0.6749886322840001
8545, LONYUK , CC1C(NC(CC1=NOC(=O)c1cccc(C)c1)c1ccccc1)c1ccccc1 , P21/n ,0,1,1.21099306359,0.65864848282
8546, NIVPAJ01 , Nc1cc(CO)ccc1N(=O)=O , C2/c ,1,0,1.50160744474,0.726833815089
8547, FAKDUS , Cc1cc(C)c(N2C=CN(C2=NN=O)c2c(C)cc(C)cc2C)c(C)c1 , C2/c ,1,1,1.19675258484,0.665725333123
8548, MPICIN , CN1C(Cc2ccccc12)=Nc1c(cc(cc1N(=O)=O)N(=O)=O)N(=O)=O , P-1 ,1,1,1.52587885588,0.666363446851
8549, HOTMEI , CC1(C)CCCC(C)(C)N1OC(C(=O)ON1C(C)(C)CCCC1(C)C)c1ccccc1 , P-1 ,1,1,1.1252905601799998,0.658930431101
8550, ERETAW , NC(=O)C1=N([O])ON=C1N1N=C(C(=N1[O])C(N)=O)N(=O)=O , P-1 ,1,1,1.7657306172599998,0.7016607750280001
8551, COLZAE , CC1=C(CON(=O)=O)C(C)(N(=O)=O)C(C)(C(=O)C1(C)N(=O)=O)N(=O)=O , P212121 ,0,0,1.6051618394100002,0.6773747086249999
8554, SITQAP , Cc1c(cc(cc1N(=O)=O)N(=O)=O)N1C=NC=N1 , P-1 ,1,1,1.5789923292399999,0.709630879791
8555, ATAZAX , CC1(C)c2ccccc2N2CC(=O)N(O)C12C , P21/a ,0,0,1.24682155105,0.669005175388
8559, CIWMUS , O=N(=O)NC1=NON=C1C1=NON=C1NN(=O)=O , P21/n ,0,0,1.9354042434099998,0.752231237323
8560, GUPVUK , O=C(OCc1ccccc1)c1cc2ccccc2nc1N(Cc1ccccc1)OCc1ccccc1 , P21/n ,0,0,1.27830306795,0.677036142152
8561, LEFXUR , O=C(C=C1CCCCCN1)c1ccc(cc1)N(=O)=O , P-1 ,1,1,1.36222687907,0.711933965545
8562, YIMWIC01 , COc1ccc(cc1)C=C1C(=O)ON=C1C , P21/c ,1,1,1.37216079121,0.706442307692
8564, CECPEH , COc1ccc(Oc2ccc(cc2N(=O)=O)C2=C(N(C)C(=N2)C)N(=O)=O)cc1 , P-1 ,1,1,1.4267286261399998,0.679367619238
8566, ROKYIZ , CC1(C)OCC(O1)C1OC(C2OC(C)(C)OC12)N(O)Cc1ccccc1 , P212121 ,0,0,1.28358104656,0.6726708074529999
8567, HIMPEO , ON=CC(=O)c1ccccc1 , P21/n ,0,0,1.3526933516,0.699079089924
8568, IWEFIB , O=C(N1CCC2C(CCN2C(=O)c2ccc(cc2)N(=O)=O)C1)c1ccc(cc1)N(=O)=O , Cc ,0,0,1.4647200062399999,0.719908882375
8569, KOFDUF , OCCNC(=O)c1cc(cc(c1)N(=O)=O)N(=O)=O , P212121 ,0,0,1.57359915563,0.716616716617
8570, SAWBOH , NC(=O)c1c(cc(cc1N(=O)=O)N(=O)=O)N(=O)=O , Pbca ,1,0,1.7374349867299999,0.7222461823530001
8572, UGELID , O=NN1CCCc2ccc3CCCN(N=O)c3c12 , C2/c ,1,1,1.3908712740399998,0.691961538462
8574, XIKHAD , O=C1N(Cc2ccccc2)c2ccccc2N=C1c1cccc(c1)N(=O)=O , P21/c ,1,0,1.4390357100100002,0.7260962467479999
8575, LIXRIT03 , O=C1C(=CNc2ccccc2)C=CC=C1N(=O)=O , Pccn ,1,0,1.4253017020200003,0.707221123744
8576, OSUGIU , O=C1CCc2c1c1ccccc1cc2N(=O)=O , P21/n ,0,0,1.50481959681,0.741246208988
8577, OWUXOU , CC1COC(=O)C(CC(=C1)c1ccc(cc1)N(=O)=O)C(C)=O , P-1 ,1,1,1.3539296333000002,0.693767806268
8578, CTMTNA14 , O=N(=O)N1CN(CN(C1)N(=O)=O)N(=O)=O , Pbca ,1,0,1.84731479366,0.772137079608
8579, JITWUE02 , Cc1cc(C)c(c(C)c1)C(O)=CC(=O)c1ccccc1N(=O)=O , Pbca ,1,0,1.34446524484,0.7176126732629999
8581, NAPHUK , O=N(=O)C=CC=CN(=O)=O , P21/c ,1,0,1.55552337696,0.7112019230769999
8582, DAXMUL , OC1COC(Nc2ccc(cc2)N(=O)=O)C(O)C1O , P212121 ,0,0,1.5511516931799998,0.740760869565
8584, ZACSII , O=N(=O)NC1=NON=C1NN(=O)=O , P21/c ,1,0,1.9119222185099998,0.740844874059
8585, VARJAZ , ON=C1N=C(N(Cc2ccccc2)c2ccccc12)c1ccccc1 , P21/c ,1,0,1.29398577264,0.691401999535
8586, UHARAX , COc1ccc(cc1)N1C=Nc2c1ncnc2C(N)=NO , P21/n ,0,0,1.48488074893,0.717126830334
8587, GOJSIJ , O=N(=O)c1ccccc1Cc1ccccc1N(=O)=O , P-1 ,1,1,1.47372276739,0.721637159137
8588, JOXSAQ01 , CC(=CC=CC=C(C)C1=[N+]([O-])C(C)(C)C(C)(C)N1[O])C1=[N+]([O-])C(C)(C)C(C)(C)N1[O] , P21/n ,0,0,1.18891032636,0.654693037315
8589, YOCSEP , O=N(=O)c1ccc(Oc2ccc3ccccc3c2c2c(Oc3ccc(cc3)N(=O)=O)ccc3ccccc23)cc1 , P21/c ,1,0,1.38302852205,0.677411764706
8590, HNIDPA01 , O=N(=O)c1cc(c(Nc2c(cc(cc2N(=O)=O)N(=O)=O)N(=O)=O)c(c1)N(=O)=O)N(=O)=O , P212121 ,0,0,1.81796212808,0.7448416682100001
8591, WUQQIJ , CCN(CC)c1ccc(NC(C)=O)c(OC(C)C)c1N(=O)=O , P21/c ,1,0,1.18381192004,0.643282861532
8593, IFAYOF , CCN1C=CN(C)C1=NN=O , P21/c ,1,1,1.3994936095200001,0.734635140387
8594, JURKAK , O=C(CON(=O)=O)NC1CCOC1=O , P21/n ,0,0,1.63036011222,0.738831060545
8595, JUXLEV , CONC(N)=O , P-1 ,1,1,1.31499291981,0.640661654135
8596, BUDRIC , CCOC(=O)C(=Cc1cc(O)c(O)c(c1)N(=O)=O)C#N , C2/c ,1,1,1.56011545181,0.741233704293
8597, DEVRUR , CCC(C1OC(=O)c2ccccc12)N(=O)=O , P21/c ,1,1,1.32862364666,0.662256462934
8598, NPHOAC01 , OC(=O)COc1ccc(cc1)N(=O)=O , P-1 ,1,1,1.56208185606,0.7266352694920001
8599, GIKDUA , COCOc1cccc(C2OCCCO2)c1C1=NOC(=O)C1=C(C)C , P21/n ,0,0,1.3570120582700003,0.6985111435879999
8600, GEVKOI , ON=Cc1ccnc2ccccc12 , P21/c ,1,1,1.33158600256,0.679427806936
8601, XURBES , CCN(CC)N1N=C2C=CC(=CC2=C1C(O)C(=O)OC)N(=O)=O , P21/c ,1,0,1.30766616197,0.658833710558
8602, GAVQIE , CC(=O)Nc1c(C)c(ccc1N(=O)=O)N(=O)=O , P21 ,0,1,1.58140544819,0.7416178736519999
8603, NIPFAV , CCOc1ccc(cc1)N(c1ccc(OCC)cc1)c1ccc(cc1)N(=O)=O , P21/c ,1,1,1.27213986191,0.663917604135
8604, NTBZAM01 , NC(=O)c1ccc(cc1)N(=O)=O , P21/c ,1,0,1.5890497089200002,0.757021511307
8605, EHETUG , O=N(=O)c1ccc(cc1)c1nnc(nn1)c1ccc(cc1)N(=O)=O , P21/c ,1,1,1.64584046736,0.757294957295
8607, LONTAL , COc1ccc(cc1)C1NC(C(C1N(=O)=O)c1ccccc1)c1ccccc1 , P-1 ,1,0,1.27132425954,0.6710882409000001
8608, XUQMUR , CC1C2CCC(=NNc3ccc(cc3N(=O)=O)N(=O)=O)C2C2C1CCC12CC1 , P21/c ,1,1,1.35516416265,0.693205471305
8610, QIRDAW , CC1(C)N([O])C(=[N+]([O-])C1(C)C)c1ccnc2ccccc12 , P-1 ,1,1,1.29034039416,0.676638903054
8611, REFGEO , CN(C)c1ccc(cc1)C=NN=C(C)c1ccc(cc1)N(=O)=O , Pbca ,1,0,1.29619374362,0.709483259806
8612, OKUYIC , Cc1ccc(O)c(n1)C1N(O)C(C)(C)C(C)(C)N1O , P21/n ,0,0,1.22786859675,0.654252618064
8613, VEXWAX , OC1CCCCCCC1OC(=O)c1ccc(cc1)N(=O)=O , P-1 ,1,1,1.31731801874,0.675019148703
8614, BENPES , CC1=CC(=NO1)N1C(Oc2ccc3ccccc3c2C1c1ccc(cc1)N(=O)=O)c1ccc(cc1)N(=O)=O , P21/n ,0,0,1.44086302841,0.7001773327069999
8615, DUPJUU , CCCCC=NNc1ccc(cc1N(=O)=O)N(=O)=O , C2/c ,1,0,1.4040158742700002,0.701072131692
8616, HNIMOZ , O=N(=O)C1=CN=C2OCCN12 , P21/c ,1,0,1.6687890404199999,0.7507493169939999
8617, SEDTUQ , NC(N)=C(N(=O)=O)N(=O)=O , P21/n ,0,0,1.906522456,0.7858433963699999
8618, SUNKIV , OCC(O)C(O)C(O)C(O)CN(=O)=O , P21 ,0,0,1.61480304765,0.7536363636360001
8620, WUKVOO , CCOC(=O)CC(C=Cc1ccccc1)=Cc1cccc(c1)N(=O)=O , P21/c ,1,0,1.26644994106,0.6707491289199999
8622, GIGSUK , O=N(=O)c1ccccc1C=Cc1ccccc1 , Pbca ,1,0,1.3048349738,0.681751093232
8623, BUMJAU , Nc1c2ccccc2nc2cccc(c12)N(=O)=O , Pbca ,1,0,1.4669468821399998,0.7110644767550001
8624, VADZEF , OC1CCCCC1OC(=O)c1ccc(cc1N(=O)=O)N(=O)=O , P-1 ,1,1,1.4612392209,0.69024122807
8625, TILBAT , OC1C(C(c2ccccc12)C1=CNc2ccccc12)N(=O)=O , P212121 ,0,0,1.4090489359600002,0.70551497114
8626, BOWHIE , CN(O)C(=O)c1ccc(C)cc1 , P21/n ,0,0,1.2502733863200002,0.662844136325
8627, KOZTOK01 , O=C1c2ccccc2ON=C1c1ccccc1 , P21/n ,0,1,1.41819837405,0.720266128429
8631, DEMSAP , OC1=C(C(=O)CCC(CCCCC1)N(=O)=O)C(=O)OCc1ccccc1 , P21/c ,1,1,1.33718255764,0.699591603365
8632, HEQYUZ , CN(N=Cc1cccc(c1)N(=O)=O)C(=O)c1cnccn1 , P21/n ,0,0,1.5059033121399998,0.738373074234
8633, SAHPEW , Cc1cc(C)c(c(C)c1)C1=NOC(C1)C1OC2OC(C)(C)OC2C1OC(N)=O , P21 ,0,0,1.2551688302500001,0.660527625684
8634, YAGKEX , COC(=O)Cc1ccccc1OCC1=NC(=NO1)c1ccccc1 , P-1 ,1,1,1.34299660381,0.682255244755
8635, PIZQOE , CCC12CCCN3C(=O)C(=C(C(=C13)CC2)c1ccccc1N(=O)=O)C(C)=O , P21/n ,0,0,1.29259795876,0.666771589992
8636, JIZJAD , CC(COCc1ccccc1)C1OC(=O)C(CC(C)=O)C(OC(=O)c2cc(cc(c2)N(=O)=O)N(=O)=O)C1C , P-1 ,1,1,1.3574780430000002,0.6708984375
8638, XIVXAB , Cc1cc2c3cc(C)c(C)cc3C3=NON=C3c2cc1C , P-1 ,1,1,1.2798354311799998,0.685921717172
8639, LEFHAI , CC1=CC2OC3(CCCCO3)CC(=C)C2CC1OC(=O)c1ccc(cc1)N(=O)=O , P-1 ,1,1,1.30038095301,0.6754429730149999
8640, KUFGEX , CN1OC(OOC1(c1ccccc1)c1ccccc1)C1CCCCC1 , P-1 ,1,1,1.21276842606,0.651803542673
8641, ROHBAR01 , O=C(NN=Cc1ccc(cc1)N(=O)=O)c1ccncc1 , P21/c ,1,0,1.44032350159,0.7088395061730001
8642, GUVBAC , O=N(=O)c1ccc(C=CC2=NN=C3N2N=Cc2ccccc32)cc1 , P-1 ,1,1,1.52636503725,0.74811581113
8643, SEZJEN , CON1C(=O)CCC1=O , P21/c ,1,0,1.4660059196899997,0.7284931228749999
8644, ANQDAZ , O=C1c2ccccc2C(=O)C2=C1C=CC1=NON=C21 , P21/a ,0,0,1.5389591341799997,0.73326520184
8645, ZITHUH , CON1C(=O)Nc2ccc(cc12)N(=O)=O , Pna21 ,0,0,1.60511370349,0.735498251748
8646, PIWYEZ , Cc1cc(C)c2N3CN(Cc2c1)c1c(C)cc(cc1C3)c1c(C)cccc1C(=O)Oc1ccc(cc1)N(=O)=O , P21/c ,1,0,1.2896645485200002,0.66781551409
8647, POPDAZ , COC(=O)C(CC1=CNc2ccccc12)N1OC21CC1CC=CCC1C2 , P21/n ,0,0,1.2447825614899999,0.662435064935
8648, HEGRES , Cc1c[n+]([O-])c(cc1N(=O)=O)c1cccc(n1)c1cc(c(C)c[n+]1[O-])N(=O)=O , C2/c ,1,1,1.6338571697100002,0.765067502411
8649, JOKLIG , CNC1=C(C(c2ccc(C)cc2)C2=C(NN=C2C)O1)N(=O)=O , P-1 ,1,1,1.36366142575,0.678983406329
8650, KAGDEB , CNC(c1ccccc1)=C(c1ccccc1)N(=O)=O , P212121 ,0,0,1.30661928646,0.6917350848389999
8651, CUZMOZ , CN1C=CC(=N1)N(=O)=O , Pnam ,0,1,1.47102510002,0.690406976744
8652, KEDJUB , NC1=C(N(CC2=NN=NN2)N=C1N(=O)=O)N(=O)=O , P21/n ,0,0,1.8684827943200002,0.773055028463
8653, UFAVUU , O=N(=O)C1=NN(C=N1)C12CC3CC(CC(C3)C1)C2 , P21/c ,1,0,1.35951445523,0.749914236707
8654, BAKKAC , CON1C(=O)C2(CC3NC(=O)C4CC2OCC34)c2ccccc12 , Iba2 ,0,0,1.37275684336,0.67616190353
8655, PUKZEB , CC12OC(OC1CC(=O)C=C2)c1ccc(cc1)N(=O)=O , P21/c ,1,0,1.4340322954499998,0.70326699574
8656, JEDWIB , CC(OCc1ccccc1)C(=O)C(C)C(CN(=O)=O)c1ccccc1 , P21 ,0,0,1.23098349671,0.671832262317
8657, MEYJAB , COC(=O)C1=C(c2ccccc2N(=O)=O)C(=C(C)N2C(=C(C=C12)C#N)N)C(=O)OC(C)C , P21/c ,1,0,1.40631849873,0.6993730825660001
8658, BOWFAV , CC(N1CCC(C)(O)C(C1c1ccccc1)N(=O)=O)c1ccc(cc1)N(=O)=O , P-1 ,1,1,1.33438947661,0.682040998217
8659, KIFSEA , CC(C)(C)OC(=O)CN1C(=O)C(=C(C1=O)C1=C(CCO)ON(C1c1ccccc1)C(C)(C)C)C#CCCO , P212121 ,0,0,1.2072678592100001,0.654730813412
8660, XEZBAI , CC1=C2C(N3N(CCC3=O)C(c3ccc(cc3)N(=O)=O)C2=C(O1)c1ccccc1)c1ccccc1 , P-1 ,1,1,1.3477559823199998,0.6888759388760001
8661, ZETKOB , COC(=O)C1C(CC2=NOC3CCC1C23C)C(C)C , C2 ,0,0,1.2336480608700002,0.6848284354649999
8663, UDOVAL , COc1cc(c2c(ccc3ccc4ccccc4c23)c1OC)N(=O)=O , P21/n ,0,0,1.46398080569,0.733650320345
8665, CUXNOY , Oc1c2COCCOCCOCCOCCOCc1cc(c2)N(=O)=O , P21/c ,1,0,1.3559962081299999,0.6770519407619999
8666, JUXBOV , CONC(=O)Nc1ccc(cc1)N(=O)=O , P21/c ,1,0,1.47933685847,0.6968714723430001
8667, PINJUS , CNN1C=CC(=NC1=NNc1ccc(cc1)N(=O)=O)c1ccccc1 , P21/n ,0,0,1.39463150723,0.700508351489
8668, ZIYTIK , CN1CCOc2ccccc2C(O1)c1ccccc1 , P21/n ,0,0,1.25550624366,0.690751312562