ID,name,smiles,space_group,inversion_symmetry,beta_packing,density,packing_coefficient
6089, TIJPIM , O=N(=O)c1ccc(C(C(c2ccccn2)c2ccc(cc2N(=O)=O)N(=O)=O)c2ccccn2)c(c1)N(=O)=O , P-1 ,1,1,1.4217010111700001,0.666041784303
6090, UBUPEM , CCOC(=O)C12CCCCC1(O)C(CCC2)C(C)=NNc1ccc(cc1N(=O)=O)N(=O)=O , P21/a ,0,0,1.31139393289,0.655314858184
6091, SOVGOB , CCOC(=O)C(=[N+]([O-])c1ccccc1)C(=[N+]([O-])c1ccccc1)C(=O)OCC , P21/c ,1,0,1.2799279175799998,0.650549943883
6092, AXEQAX , None , P21/m ,0,1,1.2962202781799999,0.6996254160430001
6093, FEZZUG , COc1ccc(COC(C(Nc2ccc(OC)cc2)c2ccc(cc2)N(=O)=O)(C(O)=O)c2ccccc2)cc1 , P-1 ,1,1,1.3220988341700002,0.668260869565
6094, ZOWDIY , CN(c1cccc(c1)N(=O)=O)C1=NN=NN1 , Fdd2 ,0,0,1.49427960974,0.695445588609
6095, QAPXIR , O=C1N2C(=CC3CC3)c3ccc(cc3C2=Nc2ccccc12)N(=O)=O , P21/c ,1,1,1.4208230004799998,0.690519451679
6096, MAZXIU , Cc1ccc2C3CC(C(=O)c2c1N(=O)=O)c1ccc(C)c(c1C3=O)N(=O)=O , C2/c ,1,0,1.48541310855,0.708806143202
6097, DAGRIN , CC1(C)C2CCC31C(C2)OC(=O)N3C(=O)C(O)C(c1ccccc1)N(=O)=O , P212121 ,0,0,1.38028841924,0.695284712722
6098, QUJMOX , CC1(C)CC2C(CCOC(=O)c3ccc(cc3)N(=O)=O)C(=O)OC12C , P-1 ,1,1,1.3128684069,0.66933954934
6099, IRODID , CC1(C)CC(=C(C(c2ccc(cc2)N(=O)=O)C2=C(O)CC(C)(C)CC2=O)C(=O)C1)O , Pca21 ,0,0,0.320683638788,0.154043107992
6100, JILMUP , NC1(CCNC1=O)c1ccccc1N(=O)=O , P212121 ,0,0,1.45181148731,0.714991749946
6101, CIDQUE , CC1=CC(=NO1)N(CC1=CC=CO1)C(=O)CCC(=O)N(CC1=CC=CO1)C1=NOC(=C1)C , C2/c ,1,0,1.38942054981,0.689487694391
6102, DIWWEL , CN(C)c1cccc2cccc(c12)N(=O)=O , P21/c ,1,0,1.37289852924,0.7264160712440001
6103, WEGVOV , COc1ccc(OC)c(C2OCCCO2)c1C#[N+][O-] , Pbca ,1,0,1.37506315497,0.69933844644
6104, SEYPAQ , CN(C)c1cccc2ccc3C(=C(N(C)c3c12)c1ccc(cc1)N(=O)=O)C , P21/c ,1,0,1.31057788727,0.689486260454
6105, MAKRUO , CC1=CCCC(C)(C)C1C=CC(=O)C=Cc1ccc(cc1)N(=O)=O , P21/c ,1,0,1.1731004072600002,0.645462962963
6106, DAVXUT , CC1=C(N(=O)=O)C(C)(N(=O)=O)C(C)(O)C(=O)C1(C)N(=O)=O , P21/c ,1,1,1.4954602136700001,0.685746352413
6109, NOPHKN01 , O=C(c1ccc(cc1)N(=O)=O)c1ccc(cc1)N(=O)=O , Fdd2 ,0,0,1.4939361482,0.7064961506649999
6110, PEVNUB , CCOC(=O)c1cc2ccccc2cc1c1ccc(cc1)N(=O)=O , P212121 ,0,0,1.32261871431,0.6700790618320001
6112, USIKEO , ON1N=NN=C1C#N , P21/c ,1,0,1.67018102322,0.7092391304350001
6114, HUDJEW01 , O=N(=O)c1ccc(cc1)C=Nc1ccc(Oc2ccc(cc2)N=Cc2ccc(cc2)N(=O)=O)cc1 , P-1 ,1,1,1.39218809187,0.6896817372040001
6115, BANMOS10 , Cc1cccc(C)c1NN=C(N=Nc1c(C)cccc1C)N(=O)=O , P21/n ,0,0,1.30611067646,0.7088944011339999
6116, LAWCOC , None , P21/c ,1,0,1.5340840971399998,0.7878472222220001
6117, KUTKOA , CN1CN(CNC1=NN(=O)=O)Cc1ccccc1 , P21/c ,1,0,1.4014397151299998,0.710423782416
6118, DUDHOB , CC(C)(C)OC(=O)C1=CN(N=N1)c1ccc(cn1)N(=O)=O , P21/c ,1,1,1.37460340745,0.656746883801
6119, COTLUT , CNc1c(cc(C)cc1N(=O)=O)N(=O)=O , P21/c ,1,1,1.53667710294,0.7330755956730001
6120, DEYNED , O=N(=O)c1cc2C3CC(Oc4ccccc34)(Oc2c2ccccc12)c1ccccc1 , P-1 ,1,1,1.40873951109,0.689887318564
6121, AWIZIR , O=N(=O)c1ccc(cc1)C(c1ccc(cc1)N(=O)=O)=C(c1ccccc1)c1ccccc1 , P21/c ,1,0,1.3269381036499999,0.676329331046
6122, WEWBIJ , O=C1CCCCC1Oc1ccc(cc1)N(=O)=O , I2/a ,0,1,1.38841194854,0.638281969119
6123, FIDCOM , O=C1Nc2ccccc2C21C1c3ccccc3OC(c3ccccc3)C1(C1CCCCN21)N(=O)=O , C2/c ,1,0,1.29881383301,0.651281142509
6124, XEBNAU , CC1CCC(OC2CC3(C)C4CCC5C(C)(C)C(CCC65CC46CCC3(C)C12)=NO)C(C)(C)O , P212121 ,0,0,1.13326169381,0.652272727273
6126, QIXSAS , NN=Cc1ccc(cc1N(=O)=O)N(=O)=O , P-1 ,1,1,1.6130918236200003,0.729157054126
6128, NIPHAZ01 , O=N(=O)c1ccc(cc1)N=[N+]=[N-] , P212121 ,0,0,1.5708333353900001,0.735451795168
6129, IZAKAV , O=C1NC2C(N(CCN2N(=O)=O)N(=O)=O)N1N(=O)=O , C2/c ,1,0,1.93328538564,0.7765540039550001
6130, FORMEG , NC1=NO[N+](=C1C1=[N+]([O-])ON=C1N)[O-] , Pbcn ,1,1,1.8474851175,0.750874973645
6132, XOCDAU , CC1(C)N([O])C(=N([O])C1(C)C)C#N , P-421m ,0,0,1.27814576843,0.674955930496
6133, DUMPEG , O=N(=O)OCC1(COC1)CON(=O)=O , C2/c ,1,1,1.5593242494100001,0.680383962387
6134, YOMXAZ , CC1CC1C(OC(=O)c1cc(cc(c1)N(=O)=O)N(=O)=O)C(OC(=O)c1cc(cc(c1)N(=O)=O)N(=O)=O)C1CC1C , P21 ,0,0,1.48382611766,0.7032143705570001
6135, BESZIK , CCCCC1=C(Oc2ccc(cc12)N(=O)=O)c1ccccc1 , P21/c ,1,0,1.30736352755,0.6894323418520001
6136, QIMGOI , CCOC(=O)C1=C(C)OC(=C(C#N)C1c1cccc(c1)N(=O)=O)N , P-1 ,1,1,1.37486799157,0.673363537224
6137, HEPFUD , CC1=C(C(=O)N2N=CNC2=N1)N(=O)=O , P21/n ,0,0,1.65938243243,0.717880637235
6138, LACPIO , CNc1ccc(c2c(NCCCN(C)C)ccnc12)N(=O)=O , P21 ,0,0,1.36119096256,0.6958610495199999
6139, XOVCES , CC1(C)OC2C(O)CC3CON=C3C2(CO)O1 , P212121 ,0,0,1.40125618942,0.7006195583939999
6140, NIKTEH , O=N(=O)c1cccc(c1)c1nc2ccccc2nc1c1cccc(c1)N(=O)=O , Pbca ,1,0,1.4728529551299998,0.6982704563850001
6142, SALYEL , COC1=NOC(=N1)N=C(N)N , P21/c ,1,1,1.56732508174,0.7117880485529999
6144, NISDEY , CCOC(=O)N1N=[N+]([O-])c2ccccc12 , P21/n ,0,1,1.42152818205,0.6371442764890001
6145, METNAM07 , CN(C)N(=O)=O , P21/m ,0,1,1.44768921582,0.753360215054
6146, HANNEP , CC(C=C)C(O)C1=NOC2CCCC12 , P21/c ,1,0,1.14468953048,0.636022368353
6147, VALLIF , O=N(=O)CC1OC(=Cc2ccccc12)c1ccccc1 , P212121 ,0,0,1.3389217493799999,0.684528788929
6148, HALYAW , CNC1=C(C(CN(=O)=O)c2ccccc2O1)N(=O)=O , P21 ,0,0,1.5160272909999999,0.7300895570129999
6149, PEVQIR , O=N(=O)c1ccc(Oc2ccccc2Oc2ccc(cc2)N(=O)=O)cc1 , P21/c ,1,1,1.5017049716,0.7120740305519999
6150, LENMUM , Cc1ccc(OCC#CC#CCOc2ccc(cc2N(=O)=O)N(=O)=O)c(c1)N(=O)=O , P21 ,0,0,1.57336284646,0.749154315606
6151, HOPWUG , Nc1cc(ccc1N(=O)=O)N1CCN(CCCO)CC1 , P21/c ,1,0,1.40874929229,0.728758818342
6152, ZUGXUW , O=N(=O)c1ccc(Oc2ccc3ccccc3c2)cc1 , Pbca ,1,1,1.42125874924,0.721641044869
6153, WOCTIR , CCOC(=O)C1=NOC(=C1C1(C)OCC(C)(C)CO1)C , P-1 ,1,1,1.27891244146,0.680512075134
6154, TILJUV , CON1N=NN=C1NCC(N(=O)=O)(N(=O)=O)N(=O)=O , P21/c ,1,0,1.73266960635,0.7144464478899999
6156, TIBKIY , COC(=O)CC1=C(N2CCOCC2)c2cc(ccc2O1)N(=O)=O , P21/c ,1,0,1.4073890359399999,0.6955600318940001
6157, VINCIE , Nc1c2ccccc2c(c2ccccc12)c1c(cc(cc1N(=O)=O)N(=O)=O)N(=O)=O , P-3 ,1,0,1.45083773848,0.669482267567
6158, EPANAM , CC(C)C1=CC(=NNC(=O)c2ccc(cc2)N(=O)=O)C(=CC1=O)C , P212121 ,0,0,1.3845331029799999,0.7019657258059999
6159, SAQMUU , COc1ccc(c(c1)C(OC(=O)C12CCC(C)(C(=O)O1)C2(C)C)C(C)(C)C)N(=O)=O , P212121 ,0,0,1.32719483226,0.724702380952
6160, BIFZOI , CCc1ccccc1N=Cc1ccc(cc1)N(=O)=O , P212121 ,0,0,1.25539831848,0.712284900285
6161, NAMMAS , COc1cc(cc(C=NO)c1O)N=Nc1ccc(cc1)C(C)C , P21/c ,1,1,1.2734608403799998,0.667409612211
6162, YAGYOU , [O-][N+]1=C2C(=NO1)C(NN=C2c1ccccc1)c1ccccc1 , P-1 ,1,1,1.3939833762,0.695765027322
6163, LEFHIQ , CC1=CC2OC3(CCCCO3)C=C(COC(=O)c3ccc(cc3)N(=O)=O)C2CC1=O , P-1 ,1,0,1.4006776071399998,0.713216865694
6164, HEQQAX , Oc1cccc2ccc(C=NOCc3ccccc3)nc12 , P21/c ,1,0,1.3331246378000001,0.687880697332
6166, JECMAF , CC1=CC(=C(OC(=Nc2ccccc2)c2ccc(cc2)N(=O)=O)C(=O)C(=C1)C)C , P1121/n ,0,1,1.32476158036,0.6356489612990001
6167, PAMHUH , COC(=O)C(OC(=O)c1ccc(cc1)N(=O)=O)C(OC(=O)c1ccc(cc1)N(=O)=O)C1OC2(CCCCO2)C2(OCC1O2)c1ccccc1 , P212121 ,0,0,1.43291234285,0.6835150674070001
6168, MNPYDO05 , Cc1cn([O])ccc1N(=O)=O , P212121 ,0,0,1.5543984261300001,0.740174878885
6169, ENILES , C(ONC12c3ccccc3C(c3ccccc13)c1ccccc21)c1ccccc1 , P21/c ,1,0,1.31061527841,0.698854272625
6170, VALPII01 , O=C(NCCNN(=O)=O)NCCNN(=O)=O , Pbca ,1,0,1.55566102475,0.6662105651560001
6171, HIKXAA , O=N(=O)c1ccc(cc1)C1=CN2C(=C1)C=CC=C2N1CCCCCC1 , Pn ,0,1,1.30546392306,0.685371517028
6173, VODJOO , CC(=C)C(=O)OCC(=O)NC1=NOC(=C1)C , P21/c ,1,0,1.36576005122,0.68539804172
6174, XEWVIH , C1CCC2(OC34CCCCC3c3ccc5ccccc5c3N(O4)C2C1)N1CCOCC1 , P212121 ,0,1,1.30405620231,0.689626000471
6175, XAYXOM , COC(=O)C12COc3ccccc3C1N(OC2c1ccccc1OC)c1ccccc1 , P21/c ,1,0,1.28121660806,0.654099523665
6176, HIPSUU , Cc1ccc(cc1)N1CC2C(C)(C)C3(OC2(C1)C=C3)N(=O)=O , P21/c ,1,0,1.3237728717,0.7111176470589999
6177, TECPUM , CC1(C)COC(CC(C(Nc2ccccc2)c2ccccc2)N(=O)=O)OC1 , P21/a ,0,1,1.26071896547,0.673859872999
6178, FOCFIN , O=C1CCC(=O)N1c1ccc(cc1)N(=O)=O , C2/c ,1,1,1.60484885025,0.766777188329
6179, YOKNAO , CC(C)c1cccc(C(C)C)c1N=Cc1ccc(cc1)N(=O)=O , P21/c ,1,1,1.18515901297,0.6497807035059999
6180, TUKROH , CC12CCC(OC(=O)c3cc(cc(c3)N(=O)=O)N(=O)=O)C=C1CC2CCc1ccccc1 , P-1 ,1,1,1.36834981299,0.7026139573569999
6181, XOCZUL , O=C(CN=[N+]=[N-])N1C2C3N(C4C1N(C(C(N2N(=O)=O)N3N(=O)=O)N4N(=O)=O)N(=O)=O)C(=O)CN=[N+]=[N-] , P21/n ,0,0,1.8755681325799998,0.755956148051
6182, UWUXUH , O=N(=O)c1ccc(NN=C2C3CCCCC3CCC3CC23)c(c1)N(=O)=O , P21/c ,1,0,1.37877490683,0.7059049951890001
6183, GITJEZ , CC1CC2(ON=C(C2c2ccccc2)c2ccc(cc2)N(=O)=O)C(=O)c2ccccc12 , P21/n ,0,0,1.33962341677,0.682152484763
6184, NUGJEG , [O-][N+]1=C(c2cnc3ccccc3n2)C(=NC21CCCCC2)c1ccccc1 , P212121 ,0,0,1.2785050438799999,0.668370047814
6186, TUWBAQ , CC1OC(C(OC(C)=O)C(OC(C)=O)C1OC(C)=O)N1C(=O)C(=CC(=O)c2ccc(cc2)N(=O)=O)c2ccccc12 , P212121 ,0,0,1.3477478120299997,0.661239167337
6187, YIFMIK , COc1c(cc(cc1N(=O)=O)C(C)(C)C)N(=O)=O , C2/c ,1,0,1.3324220858700002,0.6638348739909999
6189, WECZEJ , CC(C)(C)NC=C(C=NC(C)(C)C)N(=O)=O , P21/c ,1,1,1.1205550312600001,0.649194950103
6190, KAKJUB , CCOC(=O)C1C(=C(C)N(NC(=O)c2ccccc2)C1(O)c1ccc(cc1)N(=O)=O)C(=O)OCC , P21/n ,0,0,1.25151284122,0.635862840282
6191, QUGLIN , CC1(N(c2ccccc2C1=O)N(=O)=O)c1ccccc1 , P21/n ,0,0,1.3406307182100001,0.665026455026
6192, WECXIM , COc1ccc(cc1)N1C(=NC(=N1[O])c1ccc(OC)cc1)c1ccc(OC)cc1 , P21/c ,1,0,1.32398564805,0.677386703474
6193, YELMOR , CC(=O)OC1COC(Nc2ccc(cc2)N(=O)=O)C(OC(C)=O)C1OC(C)=O , P212121 ,0,0,1.36684583123,0.610017591404
6194, XATZUO , O=C(NN=Cc1ccc(cc1)N(=O)=O)c1ccccc1 , P21/n ,0,1,1.38337397717,0.68359375
6195, EJEPUE , O=N(=O)c1ccc(NN=Nc2ccc(cc2)N(=O)=O)cc1 , P21/c ,1,1,1.4775232937600002,0.689814814815
6196, TUYMEF , CN(C)c1ccc(cc1)[N+]([O-])=Cc1ccc(c(NC(C)=O)c1)N(=O)=O , P-1 ,1,1,1.3902303981400002,0.703562653563
6198, TMPPIO13 , CC1(C)CCCC(C)(C)N1[O] , Cm ,0,1,1.11031943355,0.688757183908
6199, TABRET , O=N(=O)C1=CC=C(O1)C=NN1C=NC=N1 , Pnma ,1,1,1.5719370432700002,0.692708333333
6201, YEMGIJ , O=N(=O)c1ccc(cc1)C1=CC2C(=CC=C1)C1=C(c3ccccc3CC1)C2(C#N)C#N , Pbca ,1,0,1.35775496654,0.704511744128
6203, WORWIJ , CCOC(=O)C1(CCC(C)(C1CC(C)=O)N(=O)=O)C#N , P21/c ,1,0,1.4853030310799997,0.6773072825249999
6205, SAVJUU , COc1ccc(cc1)C(C)=NNc1ccc(cc1N(=O)=O)N(=O)=O , C2/c ,1,0,1.43939417375,0.7042503652300001
6206, VATXAR , CCOc1ccc(c(O)c1)C(=O)c1cccc(c1)N(=O)=O , P21/n ,0,0,1.40703226163,0.695126436782
6207, UHOPAJ , CC1(C)N=C(C#C)N([O])C1(C)C , Pbca ,1,0,1.1727496929799999,0.669700283668
6208, DORJEA , Cc1ccc(c2CN3CN(Cc4c(ccc(C)c34)N(=O)=O)c12)N(=O)=O , P21/n ,0,0,1.51328619693,0.734560107737
6209, GILHUF , O=C(OCC(ON(C12CC3CC(CC(C3)C1)C2)C12CC3CC(CC(C3)C1)C2)c1ccccc1)c1ccccc1 , P-1 ,1,1,1.27203483613,0.7011670761669999
6210, JEPJOE , COc1ccc(C=Cc2cc(OC)c(OC)c(OC)c2)c(OC)c1N(=O)=O , P21/c ,1,0,1.39973521049,0.7154818744470001
6211, PEVWOC , CCC1=NOC2(CC(OC2=O)c2ccccc2)C1 , P21/n ,0,0,1.29672561525,0.698513824885
6212, SEKHUL , CC(=O)OC1COC(CN(=O)=O)C(OC(C)=O)C1OC(C)=O , P212121 ,0,0,1.3309664202399998,0.638625685585
6213, GEJKUB , O=N(=O)c1ccc(CNc2ccccc2)cc1 , P21/n ,0,0,1.3337728812,0.702865761689
6214, GACGAS , COC(=O)C(C#N)=C(O)c1ccc(cc1)N(=O)=O , P21/c ,1,0,1.48513179968,0.717144772301
6215, SABHUB , CC(C)(C)c1ccc(cc1)C1=NOC2C3CC(C4ON=C(C34)c3ccc(cc3)C(C)(C)C)C12 , C2/c ,1,0,1.1756441905,0.643077904239
6218, YELSIS , COCOc1cccc2C(=O)C3(CCCC4=C3C(=NO4)c12)OC(=O)C12CCC(C)(C(=O)O1)C2(C)C , P212121 ,0,0,1.3468026982199999,0.6662691842740001
6219, BORQAB , O=N(=O)c1ccc(cc1)c1ccc(cc1)N(c1ccccc1)c1ccccc1 , P21/c ,1,0,1.2915735554799999,0.6806274748710001
6220, VIDYOW , O=Nc1ccc(Nc2ccccc2)cc1 , P21/c ,1,0,1.31240552178,0.697147702744
6221, UREMUA , CC1(C)OC(=O)C(=CNc2ccccc2N(=O)=O)C(=O)O1 , P21/c ,1,0,1.46562312022,0.696875
6222, GASKUG , CC(=O)CC(=O)NC(CC1=CC(=NO1)OCc1ccccc1)c1ccccc1 , P21/c ,1,0,1.21764947859,0.634887261108
6224, JILXAG , COC(=O)C1(NC(C(C1N(=O)=O)c1ccccc1)c1ccccc1)c1ccccc1 , P212121 ,0,0,1.26275795971,0.651322014009
6227, NBCBCO , CC(OC(=O)OCc1ccc(cc1)N(=O)=O)C1C2CCOC(C)(C)N2C1=O , P21/c ,1,0,1.34182737495,0.680250875024
6228, EGEVIW , CC(C)(C)N(O)c1ccc(cn1)c1ccccc1 , P-1 ,1,1,1.20092839109,0.684230055659
6229, WOBHUQ , COc1ccc(C=CC=Nc2ccc(cc2)N(=O)=O)cc1 , Pbca ,1,0,1.3160860488,0.6813685417550001
6230, TUZPEJ , O=C(CN=[N+]=[N-])NC1=NON=C1NC(=O)CN=[N+]=[N-] , P21/n ,0,0,1.61030616878,0.673363889685
6231, CIFQIR , CCCCNc1ccc(cc1NC(C)=O)N(=O)=O , P-1 ,1,1,1.3117048626999999,0.689700460829
6232, WADVUV , CC1=C(C)C2(C)N(OC1(C)C2(C)COC(=O)CN1C(=O)C2C3CC(C=C3)C2C1=O)C(N)=O , P21/c ,1,0,1.3116331271700001,0.6710576529919999
6233, XAQVIV , CC(C)C1CCC(C)CC1OC(=O)C=NO , P21 ,0,0,1.1008968694499999,0.6277425751110001
6234, ICOXEF , CCOC(=O)C(C)N1CNC(=NN(=O)=O)N(C1)CC1=CC=CO1 , P21 ,0,0,1.40235687067,0.694785153118
6235, XOPCOV , COc1cccc2C(=O)C3(CC(C)CC4=C3C(=NO4)c12)c1ccc(OC)c(C(C)=O)c1O , P-1 ,1,1,1.39334831615,0.699471126358
6236, ZIVCAI , CN(C)C(=O)Oc1ccc(cc1)N(=O)=O , Pca21 ,0,0,1.38733559561,0.676826092702
6237, ZEHDEX , O=N(=O)C1(CCCCC1)N1N=C2C=CC=CC2=N1 , P212121 ,0,0,1.3951080108899998,0.713346626786
6239, DEQQUO , CC1(C)OC2C(CN3CC4CON=C4C3C2O1)OC(=O)Nc1ccccc1 , P212121 ,0,0,1.31748424307,0.660186958275
6240, XEZXEF , CC1(C)N([O])C(=[N+]([O-])C1(C)C)c1cc(cc(c1)C1=[N+]([O-])C(C)(C)C(C)(C)N1[O])C#C , P21/n ,0,0,1.2190710196899999,0.643180941358
6241, ESIRIJ , O=N(=O)c1cccc2NCc12 , P21/n ,0,0,1.4249861091100002,0.693615257048
6244, XOCDID , OC(C1COC(=O)C1)c1cccc(c1)N(=O)=O , P21 ,0,0,1.4820238456600001,0.7146759662890001
6245, DIWYUE , O=C1N(Cc2ccccc2)C(NCc2ccccc2)c2ccc(cc12)N(=O)=O , P-1 ,1,1,1.3572483228299999,0.7037878787880001
6246, TAXSOB , CCOC(=O)C(=CC1=C(N(C)C=N1)N(=O)=O)C(=O)OCC , P21/c ,1,0,1.3575939167200002,0.673225423225
6247, CUQTIR , CCOC(=O)C1=NOC(=C1C(C)=NNC(=O)Nc1ccccc1)C , C2/c ,1,0,1.3709692225,0.69573822404
6248, ZIBFUO , C1C2C(ON(C2c2ccccc2)c2ccccc2)N(C1c1ccccc1)c1ccccc1 , P21/c ,1,1,1.26722964088,0.6899094383519999
6251, NIHKAR , COC(=O)C1(CC2C(OC3CC23C1)c1ccccc1N(=O)=O)C(=O)OC , P212121 ,0,0,1.43996474896,0.712463356974
6252, SADMUI , CCOC(=O)C1C(C)ON(C1C1=CNc2ccccc12)c1ccccc1 , P21/c ,1,0,1.2564228749,0.660805093283
6253, NUJBEZ , ON=C1CCCCC1OC(=O)c1ccccc1 , P21/c ,1,0,1.28467980355,0.68078817734
6254, XITSOJ , COc1cc2N(C)C(=NN=Nc3ccc(cc3)N(=O)=O)N(C)c2cc1OC , P21/c ,1,0,1.43777296239,0.709996345029
6255, ASULAC , COC(=O)C1(CC2=C3C(=C(C(=O)C(c4ccccc4)C3=C(O2)c2ccccc2)c2ccc(cc2)N(=O)=O)C1)C(=O)OC , P21/n ,0,0,1.3582746141600002,0.672106013109
6256, KUZVUX02 , CCOC(=O)CN1C=C(N=C1C)N(=O)=O , P212121 ,0,0,1.41457062386,0.69656571287
6257, YODFUT , CCCNc1ccc(cc1N(=O)=O)C(=O)OCC , P-1 ,1,1,1.3699149778100002,0.7154668567360001
6258, WIDXAK , COc1cc(cc(OC)c1O)C1=N([O])C(C)(C)C(C)(C)N1[O] , Cc ,0,0,1.27471213054,0.657657004831
6260, CACPUS , OCC(O)C(O)C(=O)NO , P21 ,0,0,1.58026807076,0.735741793508
6261, MUCJAW , CC1(C)CC(=O)C2=C(C1)Nc1ccc3ccccc3c1C2c1cccc(c1)N(=O)=O , P21/n ,0,0,1.31462752092,0.674012391118
6262, DIWNED , CC1=NN(c2ccccc2)c2nc(N)c(C#N)c(c3ccc(cc3)N(=O)=O)c12 , C2/c ,1,1,1.35877196164,0.665813721854
6263, WAJSIM , CC12CCN3C1C2c1cc(ccc31)N(=O)=O , P21/c ,1,0,1.34125142672,0.6786967487250001
6264, UNOGAF , CCOC(=O)C(C(=O)OCC)c1ccc(cc1)N(=O)=O , P21/c ,1,0,1.35512373905,0.6842967884829999
6265, AMELUA , [O]n1ccccc1C(=C)c1ccccc1 , P21/n ,0,0,1.25528309661,0.68267287234
6266, XONVOL , CC1(C)CCC(COC(=O)c2ccc(cc2)N(=O)=O)C1(C)O , P21/c ,1,0,1.3020069995399999,0.690044080488
6270, OFIHER , COc1cc(cc(OC)c1OC)C(=NOC(C)=O)c1ccc2N(C)C=Cc2c1 , P-1 ,1,1,1.28974807963,0.666666666667
6271, PUVSEE , CN(C)C=C1N=C(OC1=O)c1ccccc1N(=O)=O , P-1 ,1,1,1.40999800908,0.689024390244
6272, GAGWIX , CCOC(=O)C(OC(C)=O)(C(CC(=O)c1ccc(cc1)N(=O)=O)c1ccccc1)C(=O)OCC , P21/n ,0,0,1.3673833376299998,0.6942573051950001
6274, VURCUI , NN=C(C=NO)c1ccccc1 , P21/n ,0,0,1.34297749206,0.701078216374
6276, BIDGAZ , CN1C(=O)C(C(ON2C(C)(C)CCCC2(C)C)C(=O)c2ccccc2)(c2ccc(C)cc2)c2ccccc12 , P21/n ,0,0,1.2085730317799999,0.672748850319
6278, TIJRUA , CC(=O)C(=NNc1c(cccc1N(=O)=O)N(=O)=O)C(C)=O , Cc ,0,0,1.5626537192200003,0.7300281954889999
6279, DNBZPY03 , O=N(=O)c1ccc(Cc2ccccn2)c(c1)N(=O)=O , P21/c ,1,0,2.9319507328900003,0.774492174492
6280, NIVPAJ , Nc1cc(CO)ccc1N(=O)=O , P-1 ,1,1,1.53633657433,0.731569069069
6281, RIHCER , Oc1ccc(c(O)c1C(=O)OCc1ccccc1)N(=O)=O , P21/c ,1,0,1.5633287203900001,0.7458495375149999
6282, FOVTIT , O=N(=O)C1C2C3C4(C1C1(c5ccccc5)C2(C(C3(N(=O)=O)N(=O)=O)C41c1ccccc1)c1ccccc1)c1ccccc1 , P21/c ,1,0,1.37502041972,0.679401611047
6283, DELXOH , O=C(OC1C2C3CC4C2C=CC4C13)c1cc(cc(c1)N(=O)=O)N(=O)=O , P-1 ,1,1,1.4772760989899998,0.697354497354
6284, NOMKAC , O=N(=O)NCC(CNN(=O)=O)ON(=O)=O , Pnma ,1,0,1.7977018951700001,0.743228200371
6285, LEFQIY , O=NN1CCN(C1)N=O , Pna21 ,0,0,1.56051134636,0.81073633157
6286, CBXLEU , CC(C)CC(NC(=O)OCc1ccccc1)C(=O)Oc1ccc(cc1)N(=O)=O , P212121 ,0,0,1.27397006081,0.597810993103
6287, HEGLAH , COc1cc(OC)c(c(OC)c1)C1=NOC2(C1C)C1CCC(C)(C2=O)C1(C)C , P212121 ,0,0,1.27153124631,0.7015482136
6288, KAYRIN , CC1(C)N(=C(c2cccc(Oc3ccccc3)c2)N(=O)C1(C)C)[O] , P21/n ,0,0,1.2747480160200002,0.6768093480159999
6289, AZOMAD , CC(C)(C)N([O])c1cc(cc(c1)c1ccccc1)N([O])C(C)(C)C , P-1 ,1,1,1.2163890155200001,0.6926513815399999
6290, POXXUV , CC1(C)OCC(O1)C1=N([O])C(C)(C)OC1 , C2221 ,0,0,1.22921038116,0.655003898793
6293, QUFGON , CC1(C)OC(C)(C)c2cc(cc(c3ccccc3)c2N1[O])c1ccccc1 , C2/c ,1,1,1.22893621939,0.671120839999
6295, NECBUV , None , P21/c ,1,0,1.20687276336,0.682241281392
6296, CUSKAD , CC(C)C1OC(=O)C(=C1c1ccc(cc1)N(=O)=O)C , C2/c ,1,0,1.3460002410499998,0.700806940905
6297, QOHBEV , CC1(CCC2(CCCCC2)N1[O])c1ccc(O)cc1 , C2/c ,1,0,1.24980485427,0.7006399480959999
6298, DABQEF , OC12CC(CC(=O)C1C(c1cccc(c1)N(=O)=O)C1=C(CC(CC1=O)c1ccccc1)O2)c1ccccc1 , P212121 ,0,0,1.31280570518,0.665368639668
6299, IRIFOF , O=C1CC2C(O1)C1OC(=O)CC1C2N(=O)=O , P212121 ,0,0,1.61691825092,0.733895955643
6300, MULTEU , CCOC(=O)CC1CC(C(C(=O)OCc2ccccc2)C21C(=O)N(C(=O)OC(C)(C)C)c1ccccc21)N(=O)=O , P21 ,0,0,1.1376715558700001,0.573927064068
6301, KERBAL , OC(=O)C(=Cc1cc2OCOc2cc1N(=O)=O)c1ccccc1 , P21/n ,0,0,1.48768445084,0.7080756280760001
6302, TEBCAE , O=N(=O)C12C3C4C5CC3C3(C1CC(C24)C53N(=O)=O)N(=O)=O , Pna21 ,0,0,1.62548178073,0.720010449321
6303, MOTCEE , CCOC(=O)c1cc(cc(c1)N(=O)=O)C(O)=O , P21/n ,0,0,1.5297784040200002,0.719112561357
6305, FABFIA , O=C1OC(=CC1=NNc1ccccc1N(=O)=O)c1ccccc1 , P212121 ,0,0,1.49541191278,0.7256627553239999
6307, INEQIB , CN1CC(c2cccc(c2)N(=O)=O)C2(C(=O)c3ccccc3C2=O)C21C(=O)Nc1ccccc21 , P-1 ,1,1,1.3918267043399999,0.6803418803419999
6308, ITOHEG , CON1C(Cc2ccccc2)c2ccccc2C1=O , P212121 ,0,0,1.2722291947600002,0.678497942387
6309, NAWXAL , CC(CC(CCOC(=O)c1ccc(cc1)N(=O)=O)OC(C)c1ccccc1)OC(=O)c1ccc(cc1)N(=O)=O , P21 ,0,0,1.31583648268,0.660769675926
6310, BAQJOS , CC1=CC(C(C(O1)c1ccccc1N(=O)=O)N(=O)=O)C1=CC=CO1 , P21/n ,0,0,1.36631733729,0.667808749516
6311, RICVIJ , COc1cc(cc(c1O)N(=O)=O)C(C1=C(O)c2ccccc2OC1=O)C1=C(O)c2ccccc2OC1=O , P21/n ,0,0,1.29163473528,0.594433902593
6312, RACLAI , COC1CC(=O)CC(C1N(=O)=O)C(C)(C)C , P21/n ,0,0,1.23977008323,0.664650131075
6313, JELRIB , COC(=O)C1=N([O])c2ccccc2C1=O , P-1 ,1,1,1.5011301592,0.717203478655
6314, AOMOQU , COc1cc(c2ncccc2c1OC(C)=O)N(=O)=O , P21/c ,1,1,1.4662803202899999,0.706495859213
6316, YILPUE , Cc1ccc2C(C(=CC(c2c1)C(N(=O)=O)(N(=O)=O)N(=O)=O)C)N(=O)=O , P-1 ,1,1,1.5866370526700002,0.716919444192
6317, KAGTET , CC(C)(C)C(O)C1C(C(ON2C(C)(C)CCCC2(C)C)c2ccccc12)c1ccccc1 , P21/n ,0,0,1.1257444027399999,0.655499903213
6318, LUPFUZ , CCOC(=O)C1(CC1C1CC(=NO1)C)NC(=O)Nc1ccccc1 , Pna21 ,0,0,1.29098563791,0.671075293576
6319, VOLJUC , CCOC(=O)C(C)C1CCC(CC(CC(C)C)OC(=O)c2cc(cc(c2)N(=O)=O)N(=O)=O)O1 , C2 ,0,0,1.1182800663299999,0.631360837438
6320, VAYCUU , O=C(NCCCNCc1ccccc1N(=O)=O)C(=O)NCCCNCc1ccccc1N(=O)=O , P21/n ,0,0,1.29806524776,0.658818416545
6321, SINJIJ01 , CCCOc1c2Cc3cc(cc(Cc4cc(cc(Cc5cc(cc(Cc1cc(c2)N(=O)=O)c5OCCC)N(=O)=O)c4OCCC)N(=O)=O)c3OCCC)N(=O)=O , P21/c ,1,0,1.36390586305,0.689326467988