ID,name,smiles,space_group,inversion_symmetry,beta_packing,density,packing_coefficient
4878, OCHTET20 , O=N(=O)N1CN(CN(CN(C1)N(=O)=O)N(=O)=O)N(=O)=O , P21/n ,0,1,1.9326505183200002,0.787015114288
4879, FIBYUN , OC1CCOC(C1O)C(O)c1ccc(cc1)N(=O)=O , P212121 ,0,0,1.4208303345200002,0.688172043011
4880, QAJJUI , Oc1cccc(C=NNC(=O)c2cccc(c2)N(=O)=O)c1 , C2/c ,1,1,1.5100003453200002,0.7291646343449999
4881, ZAGGET , C1COCCOC2CC(=NO2)c2ccc(cc2)C2=NOC(C2)OCCOCCOCCOC2CC(=NO2)c2ccc(cc2)C2=NOC(C2)OCCO1 , P21/c ,1,0,1.36354786811,0.616211180124
4882, SEHYOV , O=C(OCC#C)ON=Cc1ccccc1 , Pnma ,1,1,1.3446221453799998,0.6983308327079999
4883, UCONIJ01 , O=NN1CC=CC1 , Pnma ,1,1,1.3718795889200002,0.715559895833
4885, BEGHIG , COC(=O)CCC(C)(CCOC(=O)c1cc(cc(c1)N(=O)=O)N(=O)=O)OC(Cc1ccccc1)c1ccccc1 , P21 ,0,0,1.36855120556,0.724299719888
4886, AZUDIJ , CC(=O)C1=C(C)C(=NN1)C(C)=NO , P21/c ,1,1,1.4185360286000002,0.73327016879
4887, EZUJOZ , CCOC(=O)C1(NC(c2ccc(cc2)N(=O)=O)C(=C1)C(C)=O)C(=O)OCC , P212121 ,0,0,1.33529440224,0.672602683685
4888, CACVUZ , O=C1CCc2ccccc2C1=CC=Cc1ccc(cc1)N(=O)=O , Pbca ,1,1,1.34768138752,0.707961816305
4889, ONORAL , [NH2+]=C([N-]N(=O)=O)N(CN(CN(C(=[NH2+])[N-]N(=O)=O)N(=O)=O)N(=O)=O)N(=O)=O , Pbcn ,1,1,1.91080231468,0.757756591337
4890, QADLEM , COC(=O)C=C1COC2CCCCC12N(=O)=O , P21/c ,1,1,1.3767566467299999,0.6941131662260001
4891, ZAPKOS , Oc1ccc(cc1)C(=O)NN=Cc1cccc(c1)N(=O)=O , P21/n ,0,0,1.47280126718,0.708466415021
4892, TACWOL , CCOC(=O)COc1cc(OCC(=O)OCC)c2cc1C(c1cccc(c1)N(=O)=O)c1cc(C(c3cccc(c3)N(=O)=O)c3cc(C(c4cccc(c4)N(=O)=O)c4cc(C2c2cccc(c2)N(=O)=O)c(OCC(=O)OCC)cc4OCC(=O)OCC)c(OCC(=O)OCC)cc3OCC(=O)OCC)c(OCC(=O)OCC)cc1OCC(=O)OCC , P21/n ,0,0,1.33367524686,0.652327299186
4893, WAKNIG , O=N(=O)C1=NON=C1NCc1ccccc1 , Cc ,0,0,1.4944676444999998,0.7122527296819999
4894, TUSYEN , CC1(N=NCC1C1CN=NC1(C)N(=O)=O)N(=O)=O , Fdd2 ,0,0,1.28832569623,0.744354446513
4895, CUQWIW , CON1C(=O)c2ccc(OC)cc2CC1(C)C , P-1 ,1,1,1.26894446287,0.686707152497
4896, SEFLUN , CCOC(=O)C1=[N+]([O-])OC2(C1c1ccccc1)C(=O)N(COC)c1ccccc21 , P-1 ,1,1,1.3765476227000002,0.6883803061689999
4898, ULIRAI , CC(C)(C)c1ccc(CON(OC(=O)c2ccc(cc2)C(C)(C)C)C(=O)c2ccc(cc2)C(C)(C)C)cc1 , P21/n ,0,0,1.17052665684,0.670475959868
4899, VITMEQ , CC1CC2(CCCCC2)NC(C)c2cc(ccc12)N(=O)=O , P21/c ,1,1,1.1847938651799998,0.656870638755
4902, ITIKAY01 , CCOC(=O)C(=NNc1ccc(cc1O)N(=O)=O)C(C)=O , Pna21 ,0,0,1.4249142902899998,0.679231474032
4903, HANLUF , CON=C(C)C1(NO)C(=NN(C1=O)c1ccccc1)C , P21/c ,1,0,1.32670576448,0.679808959157
4904, UGORIS , COc1c2OCOc2cc2CCN3C(NOC4N3CCc3cc5OCOc5c(OC)c43)c12 , Cc ,0,1,1.45975974919,0.6983502276729999
4905, RUSNEY , CC(C=CC(C)C(C)(C)OC(=O)c1cc(cc(c1)N(=O)=O)N(=O)=O)C1CCCCC1 , P21/n ,0,0,1.2091562867899999,0.64441082284
4906, YAGTOR , O=C1C(Oc2ccccc12)=Cc1ccc(cc1)N(=O)=O , P-1 ,1,1,1.4667502180599998,0.712122678019
4907, WEGPUV , O=C1CCCC21C(CN(=O)=O)c1ccccc1OC2=O , P212121 ,0,0,1.4074391259099999,0.686641852771
4908, KUSVOL , CC1CCCC2CC3(ON12)C(=O)CC1(C(=O)N(Cc2ccccc2)c2ccccc12)C3(C)C , P212121 ,0,0,1.2959468692899998,0.7033561175669999
4910, JEXNUY , COc1ccc(cc1)c1ccc(cc1N(=O)=O)c1ccc(O)cc1 , Pna21 ,0,1,1.3966551206600002,0.716106201931
4911, CEYKEX , CCN1c2ccccc2c2cc(ccc12)c1nc2ccccc2c(C)c1N(=O)=O , C2/c ,1,0,1.33019094309,0.6847809401
4912, WINCIH , CC1(C)CC(=N([O])C1)C=Cc1cccc2ccccc12 , P212121 ,0,0,1.21531035359,0.688231696663
4914, SEMZAM , CN1N=C(N)C(=C1c1ccccc1N(=O)=O)C#N , P21/n ,0,0,1.46847708616,0.71281316706
4915, XUSHUQ , CC(C)N1C=Nc2c1ncnc2c1ccccc1Nc1cccc(c1)N(=O)=O , P21/c ,1,0,1.3874767808500001,0.698050992169
4916, FACYUG , Cc1ccccc1C(Cc1ccccc1)=C1CCCC1=NNc1ccc(cc1N(=O)=O)N(=O)=O , P21/c ,1,0,1.3345189288600001,0.718103216485
4917, JUVMOC , O=N(=O)C1(CC2CCC1C2)N(=O)=O , P21/c ,1,0,2.9125423057499997,0.79301016703
4920, WUGCUX , [NH3+]CCNC(=O)c1cc(ccc1[O-])N(=O)=O , C2/c ,1,0,1.56756538268,0.7548062703339999
4921, EQIKUL , CC1(CO1)C1CC(=NN1c1ccccc1)c1ccc(cc1)N(=O)=O , P21/c ,1,0,1.3920046912600001,0.728688767937
4922, KAHMUC , CC(=O)OCC1OC(Oc2ccc(cc2)N(=O)=O)C(OC(C)=O)C(OC(C)=O)C1OC(C)=O , P21 ,0,0,1.4174277285699999,0.683803919198
4923, BOBZTZ , O=C(ON1N=Nc2ccccc12)c1ccccc1 , P21/c ,1,0,1.36986514153,0.6940314587369999
4927, XUGLAO , CC1(C)C2CC1C(C)(C#N)C(C2)=NO , P212121 ,0,0,1.1547910741,0.650075770572
4928, COSQUY , COC(=O)CC(C(CC(C)C)NC(=O)OC(C)(C)C)N1N=[N+]([O-])c2ccccc12 , P212121 ,0,0,1.1750635620799998,0.6276987562699999
4929, KIQREJ , CNC(=O)C(C#N)c1ccc(cc1N(=O)=O)N(=O)=O , P21 ,0,0,1.61309653306,0.7503296703300001
4930, PELGEV , CC(CN1C=Cc2cc(ccc12)N(=O)=O)OC(C)=O , P21 ,0,0,1.3945290823299998,0.713000298686
4931, YAZZAD , O=N(=O)C1C2CCCN2C2(C1c1ccccc1)c1ccccc1c1nc3ccccc3nc21 , P-1 ,1,1,1.37124567736,0.682258295506
4932, GIFKUD , CC(=C)C(CO)N(O)C(=O)c1c2ccccc2cc2ccccc12 , Pbca ,1,0,1.2925904394399998,0.680833254516
4933, ISICUJ01 , Cc1cc(ccc1NCc1ccccc1)N(=O)=O , Pna21 ,0,0,1.2624889107500001,0.663249527166
4936, KACWET , CC(C)(C)c1ccc(cc1)C1=[N+]([O-])C(C)(C)C(C)(C)N1[O] , P21/c ,1,0,1.10926548654,0.621482750184
4937, GASKIV , CCCC1C(C(=O)OC)C2(OC(C3COC(C)(C)O3)C3OC(C)(C)OC23)ON1C , P21 ,0,0,1.4868478278900001,0.631525716347
4938, ZIWQIH , CC(=NO)c1cccc(N)c1 , P21/n ,0,0,1.2934032361,0.702496069182
4939, MAQSIJ , CC1(C)OC2OC3C(OCCC4CON=C34)C2O1 , P212121 ,0,1,1.30162443407,0.648620559335
4940, JEXDUO , CC(C)(C)OC(=O)NCCCCCC(=O)ON1C(=O)C(C2CCCCC12O)c1ccccc1 , P21 ,0,0,1.2324058328299998,0.67325911819
4941, ZAYVUQ , O=C(OC1C2CCCC32C2CC4C(C12)C34)c1cc(cc(c1)N(=O)=O)N(=O)=O , P21/c ,1,0,1.45643766926,0.705031885677
4942, GEZWAM , OCC12OC(C=C1)(C1C2C(=O)N(Cc2ccccc2)C1=O)N(=O)=O , P21/c ,1,0,1.52788647356,0.72971624436
4943, TAWLUZ , O=N(=O)c1ccc(cc1)N1c2ccccc2c2ccccc12 , P21/c ,1,0,1.34978610942,0.677343392045
4944, YUXMUA , CCCCCCCCOc1cc(C(=O)Nc2cccc(C(=O)OC)c2OC)c(OC)c(c1)N(=O)=O , P-1 ,1,0,1.2982137499,0.689033189033
4945, NERKAX , CC(C)([N+]([O-])=[N+]([O-])C(C)(C)C(N)=NC#N)C(N)=NC#N , C2/c ,1,0,1.35065089352,0.6768290334999999
4946, FORAMO01 , NC=NO , P212121 ,0,0,1.43917751602,0.742095754291
4948, HIWROU , CC1(C)OCC(O1)C(OCc1ccccc1)C(O)C(C1CCOC(O1)c1ccccc1)N(=O)=O , P212121 ,0,0,1.30677415043,0.676158907634
4949, JITXAM , COc1c2OCOc2cc2CCN3C(C(C4N3CCc3cc5OCOc5c(OC)c43)N(=O)=O)c12 , P-1 ,1,1,1.4974316582700002,0.707744359897
4950, CITTAB , CC(C)C1(COC(=O)c2ccc(cc2)N(=O)=O)CC1(C(=O)OC(C)(C)C)c1ccccc1 , P21/n ,0,0,1.2768422627200002,0.682184416559
4951, OCAQIT , CC1=NOC(=O)c2ccccc12 , P21/c ,1,0,1.44973704836,0.729863237395
4954, FUWJAJ01 , O=C(Nc1ccccc1)Nc1ccc(cc1)N(=O)=O , P21 ,0,0,1.47183025837,0.724906563416
4955, HIFXIF , CON=C(c1ccccc1)c1ccc(cc1)N(=O)=O , P21/n ,0,0,1.34884058512,0.6938748732629999
4956, YAGVAF , Nc1cc(ccc1N(=O)=O)N=Cc1ccccc1O , P-1 ,1,1,1.4991631971700001,0.7303949765119999
4957, EYABIP , CC1(CCC(C)(N1[O])c1ccc(O)cc1)c1ccc(O)cc1 , P212121 ,0,1,1.32140058044,0.703861537495
4958, AZEJAR , COC(=O)c1ccc(cc1)C1N(O)C(C)(C(C)C)N(C)C1=O , P21 ,0,0,1.2556585765600001,0.670138888889
4959, BETXUV , OC(=O)C(=C)C1COC(OO1)c1ccc(cc1)N(=O)=O , P21/c ,1,0,1.5679071957799997,0.736427718041
4960, YEFFAR , COc1ccc(cc1)C=NNc1ccc(cc1N(=O)=O)N(=O)=O , P21/n ,0,0,1.4924779198700002,0.710248457637
4961, QOQPIV , Cc1ccc(cc1)C=C1C(=NC(c2ccc(C)cc2)C21C(=O)ON=C2c1ccccc1)c1ccccc1 , P21/c ,1,0,1.22248654064,0.653668651323
4962, RELFAR , CC(=O)OC1C(CO)OC(ON(C(C)=O)c2ccccc2)C(OC(C)=O)C1OC(C)=O , P212121 ,0,0,1.35244575792,0.671797532572
4963, KUKHUV , NC1=C(N(COCN2N=C(C(=C2N(=O)=O)N)N(=O)=O)N=C1N(=O)=O)N(=O)=O , P21/c ,1,0,1.81806246841,0.743189141685
4964, HIWSUD , CCCC(O)(COC(=O)c1cc(cc(c1)N(=O)=O)N(=O)=O)C(CC=C)OC(=O)c1cc(cc(c1)N(=O)=O)N(=O)=O , P212121 ,0,0,1.5518063050600002,0.73197865353
4965, YUYFIH , O=C1OCCCC2ON3CCCCC3C12 , P21/n ,0,0,1.30131993624,0.6873328781929999
4966, KUPCAB , O=C(OCCC(N(=O)=O)(N(=O)=O)N(=O)=O)C(=O)OCCC(N(=O)=O)(N(=O)=O)N(=O)=O , P21/c ,1,0,1.6985646285,0.688859180036
4967, BILMAM , CNC1=C(C(c2ccccc2)C(=C(O1)c1ccccc1)C#N)N(=O)=O , C2/c ,1,0,1.3717894711399998,0.6928957807430001
4968, CACREE , CCCN1C(=C(C(=O)c2ccccc2)c2ccc(cc2C1=O)N(=O)=O)C , P21/n ,0,0,1.31133267513,0.673231997598
4969, BUCTOJ , Cc1ccc(cc1)C1=C2C=CC(=N2)C2=CC(=C(N2)C(O)(c2ccc(C)cc2)C2=NC(=C(C3=CC=C1N3)c1ccc(C)cc1)C=C2)N(=O)=O , P-1 ,1,1,1.340595553,0.6901936715770001
4970, SALXIN , CC1C(C)C(=NN1c1c(cc(cc1N(=O)=O)N(=O)=O)N(=O)=O)C , P21/c ,1,0,1.51617429481,0.7097402597399999
4972, GEQQAU , O=N(=O)CC1OC2COC(OC2C2OC(OC12)c1ccccc1)c1ccccc1 , P21 ,0,0,1.39598473137,0.686813186813
4973, XIDPEF , CC(=O)N1CCc2cc(ccc12)N(=O)=O , P21/c ,1,1,1.39334292761,0.7011337662530001
4974, FEKHOU , O=C(CC(CC(=O)c1ccccc1)CN(=O)=O)NCc1ccccc1 , Pna21 ,0,1,1.2859857683700002,0.673338566196
4975, WOKGIM , O=N(=O)C12CC=CC(CN(CCCCN3CC4(CC=CC(C3)(C4)N(=O)=O)N(=O)=O)C1)(C2)N(=O)=O , P-1 ,1,0,1.27065634394,0.7474418604649999
4976, LUDMAZ , COC(=O)C(C)(CC=C)C(OC(=O)c1ccc(cc1)N(=O)=O)C(C)C , P-1 ,1,1,1.27296888633,0.676563811324
4980, HOSSIR , COC(=O)C1(CC(=NO1)c1c(C)cc(C)cc1C)C(O)C1COC(C)(C)O1 , P21 ,0,0,1.2738130416,0.672353395062
4981, MFZCMA , CN(C)C(=O)C1=NON=C1C , P212121 ,0,1,1.3130491230299999,0.691500369549
4982, IDEFAY , CC1CCC(C(C1)OC(=O)c1cc(cc(c1)N(=O)=O)N(=O)=O)C(C)(C)c1ccccc1 , P21 ,0,1,1.27265758576,0.655235911333
4983, VOGCOL , CCOC(=O)C1=NOC(=C1)CCCOc1c(C)cc(cc1C)C1=NOC(=N1)C , P21/n ,0,0,1.32427390362,0.6897494847
4984, GEPGOX , CC(C)N(C)c1ccc(c2ccccc12)N(=O)=O , P21/c ,1,0,1.2933539755399999,0.6977401129940001
4985, LEBGEE02 , CC(C)=NNc1ccc(cc1N(=O)=O)N(=O)=O , P-1 ,1,1,1.51405925807,0.7215478784110001
4986, BIZLAY , CCNc1cccc(NCC)c1N(=O)=O , P2/n ,0,1,1.32716850427,0.7024662791349999
4987, LUHPAF , O=C1NCCN1N(=O)=O , P21/c ,1,0,1.67411890134,0.731018518519
4988, OGUGOM , CC1(C)OCC(O1)C1OC(C2OC(C)(C)OC12)N([O])=CC1CC1 , P21 ,0,0,1.28587092427,0.667069052993
4989, XIQBIL01 , Nc1c(cc(cc1C1=CN(N=N1)c1ccccc1)N(=O)=O)C1=CN(N=N1)c1ccccc1 , P21/c ,1,0,1.5098055411700002,0.7343103002069999
4990, GILSUS , COC(=O)c1ccc2N(C)C3(Oc4ccc(cc4C=C3)N(=O)=O)C(C)(C)c2c1 , P21/c ,1,0,1.34609070587,0.677789720539
4992, MACBAU , Nc1nc(NC2CCCCC2)c(N=O)c(OCc2ccccc2)n1 , P-1 ,1,1,1.36493809604,0.707590306356
4993, XIDKAX , COC1=CC=CC2=CC(=CN12)c1ccc(cc1)N(=O)=O , P21/c ,1,0,1.41539828927,0.7053724053720001
4994, XUBMIQ , CCOC(=O)C1=C(C)OC(O)C1c1ccccc1N(=O)=O , P-1 ,1,1,1.38075456123,0.686607858861
4995, EVEXAE01 , COc1ccc(cc1)C(=O)C=C(O)c1cccc(c1)N(=O)=O , P21/n ,0,1,1.43646852806,0.71401389442
4997, WAVJOV , CCCC(Nc1c(C)cc(C)cc1C)(C(O)c1ccc(cc1)N(=O)=O)C(=O)OCC , P21/c ,1,1,1.23494795307,0.665881048547
4999, MOLQUB , CC(C)(C)C1=NOC(=N1)c1ccc(cc1)N(=O)=O , Pbca ,1,0,1.3562886162799999,0.688337930592
5000, WULREA , COC1(C)OCC(OC1(C)OC)C(OC(=O)c1ccc(cc1)N(=O)=O)C#CC , P212121 ,0,0,1.35535307335,0.691530104579
5001, GUPSAN , COc1ccc2nc3N(C)OC(=O)c3cc2c1 , P212121 ,0,0,1.4220727516799998,0.697695627959
5004, WIPFUX , Cc1ccccc1NC(=O)c1ccccc1N(=O)=O , P212121 ,0,1,1.35114443366,0.687420576735
5005, VIGPOT , COC1OC2OCC(C)(CC2C1CN(=O)=O)N(=O)=O , P21 ,0,1,1.3721011124899998,0.655381477497
5006, RURSII , CNC1=C(C(C2=COc3ccc(C)cc3C2=O)C2=C(O1)c1ccccc1OC2=O)N(=O)=O , P-1 ,1,1,1.30928877968,0.626834302399
5007, HELBIJ , Cc1cc(ccc1O)C(C)=NO , P21/n ,0,0,1.30708727974,0.702279202279
5008, WAKWIO , CN1c2cc(ccc2C(=C1c1ccccc1)N(=O)=O)N(=O)=O , P21/n ,0,0,1.49159236072,0.681445973381
5009, NANSAZ , OCCC(=C(CCC#N)c1ccccc1)c1cccc(c1)N(=O)=O , P21/c ,1,0,1.2859724724500001,0.681282271945
5010, CUYKUC , OC(=O)CCCCC1(CCC(=O)O1)N(=O)=O , P21/c ,1,0,1.3877855146899998,0.678128280102
5011, BUVHOR , CCOc1cc(N)c(cc1C(=O)N1CCCCC1)N(=O)=O , P21/c ,1,0,1.32210106924,0.6791129401010001
5012, NABMIM01 , OC(=O)CCC(N(=O)=O)(N(=O)=O)N(=O)=O , P21/n ,0,0,1.7194358910299998,0.709713142571
5013, HEDGUV , CCOC(=O)C=CN1OC(=O)c2c(C)cc(C)nc12 , P-1 ,1,0,1.33009165554,0.686468008256
5016, LEFFEI , CC(=O)ON=C(C1=CNC=N1)N(=O)=O , C2/m ,1,1,1.5516532091,0.7079819223520001
5017, HATYIL , COc1cc(C)c(c(C)c1)c1c(C)c[n+]([O-])cc1C , C2/c ,1,0,1.25482432662,0.705066127774
5018, PAFTEV , CCCC(O)(CC(C)OC(=O)c1ccc(cc1)N(=O)=O)C(=O)NC(C)c1ccccc1 , P21 ,0,0,1.2532943918500001,0.673202269429
5019, JOPNUX , O=N(=O)c1ccc2OCCNCCOCCNc2c1 , P-1 ,1,1,1.38768817861,0.7234648436319999
5020, MNIAAN02 , CC(=O)Nc1ccc(C)cc1N(=O)=O , P21/c ,1,1,1.36149207127,0.651881753115
5021, SAQVEK , COC1CC(=O)CC2CC(C)N(C(=O)C12)C(=O)c1ccc(cc1)N(=O)=O , I2/a ,0,1,1.3557066564500002,0.672859183389
5026, HUWSIC , O=N(=O)c1ccc(cc1)C1=CC=C(O1)C=NN(c1ccccc1)c1ccccc1 , P21/c ,1,0,1.32621827214,0.672144624471
5027, WUTYAN , CC1=C(C)CN(OC1)C(=O)Nc1ccccc1 , Pbca ,1,0,1.2567041321999999,0.690792838875
5028, REXHOS , CC1(C)OCC2(CO1)C1OC(C)(C)OC1CN2O , P212121 ,0,0,1.3117748647799998,0.6914933381559999
5029, MAVBIX , CC(C)(C)NC1=C(N(C=C1c1ccccc1)C(C)(C)C)c1ccc(cc1)N(=O)=O , P212121 ,0,0,1.18775390388,0.654263860717
5030, VOFROY , CCOC(=O)C1CC(=O)CC(N1Cc1ccccc1)c1ccccc1N(=O)=O , P-1 ,1,1,1.30744708775,0.679457055193
5031, XIQKIU , CON1C(=O)C2(CC3NC(=O)C4CC2OCC34)c2ccccc12 , P21 ,0,0,1.36456249508,0.678522544283
5032, CUCBIM , CC(C)(C)C1ON(C2CCCCC2)C2C1CN1c3ccccc3N=C21 , P21/c ,1,1,1.2215396562799998,0.683182066161
5035, MAYROU , Cc1ccccc1C(=Cc1ccncc1)C(C)=NO , P42/n ,1,0,1.20979391561,0.66792
5037, JERHIX , OCC(O)C(O)C(O)C(O)CN(=O)=O , P21 ,0,0,1.53186850534,0.719525844526
5038, AKEDUR , CN1C=C(C=C(C1=O)N(=O)=O)C(=O)c1ccccc1O , P21/n ,0,0,1.50452523903,0.710162503032
5039, LUKFAZ , Cc1ccc(C=CC(OCc2ccccc2)c2ccc(cc2)N(=O)=O)cc1 , P-1 ,1,1,1.1975151098899999,0.644586873054
5041, XOQLUM , CC(C)(C)N([O])c1ccc(cc1)c1ccc(cc1)N([O])C(C)(C)C , P21/a ,0,0,1.24579652192,0.7007142361830001
5042, BEHWER , COc1ccc(cc1)C1CC(C)(OC)ON(=C1C)[O] , P-1 ,1,1,1.31366937743,0.701023519164
5043, ZERJIR , NC(Nc1ccccc1)=NN(=O)=O , P21/n ,0,0,1.4163641602200001,0.676495726496
5044, IJEPOE , ONC(=O)CCCCCCC(=O)NC12C3C4C5C3C1C5C24 , P-1 ,1,1,1.37919004261,0.7300383068170001
5045, MAPANA , CN(C)CCCNc1c2ccccc2nc2ccc(cc12)N(=O)=O , P-1 ,1,1,1.31329973509,0.678035424554
5048, ZAMKIH , COc1ccc2C3CCC4(C)C(O)CCC4C3C(=NO)C(=O)c2c1 , P41212 ,0,0,1.25066107394,0.673994465595
5049, RACKUB , COC1CC(=O)CC(C1N(=O)=O)C1(C)CCCOC1=O , P21/c ,1,1,1.3887795753799999,0.7056634203829999
5051, KEDXAS , CC(C)C1(O)C=C(N(=O)=O)C(C)(C(OC(C)=O)C1N(=O)=O)N(=O)=O , P-1 ,1,1,1.4615108514300001,0.6887605976440001
5053, KAYKEB , CN1OC(CC1C1CC(ON1C)c1ccccn1)c1ccccn1 , P21/n ,0,1,1.3200300663,0.7074074743709999
5054, ENILIW , CCONC12c3ccccc3C(c3ccccc13)c1ccccc21 , P21/a ,0,0,1.2816478083399998,0.696427235316
5055, UBUNUA , CC1(O)CCCC2CCCC(=NNc3ccc(cc3N(=O)=O)N(=O)=O)C12 , P-1 ,1,1,1.3592726602899998,0.673111912402
5056, QUYKUR01 , Cc1cccc(N=Cc2ccc(cc2)N(=O)=O)c1C , P212121 ,0,1,1.29961652629,0.690029838335
5057, WIGBIY , COC(=O)C1(CC(N(C)O1)c1ccccc1)c1ccccc1N(=O)=O , P21 ,0,0,1.4103385961500001,0.7142051557469999
5058, LACPEK , CCN(CC)CCN1N=C2c3cc(OC)ccc3Nc3c(ccc1c23)N(=O)=O , P-1 ,1,1,1.34536928742,0.695073117851
5059, ZUTDAV , CN1C(=O)C2ON(C(C=Cc3ccccc3)C2C1=O)c1ccccc1 , P21/n ,0,0,1.3239992171200001,0.685953177258
5060, SALLUN , C1CC2Cc3ccccc3C3=NOC(C=C1)C23 , P-1 ,1,1,1.3079607169399998,0.699122199122
5062, ZEVGIT , O1N=C(C=C1N1C=CC=N1)c1ccccc1 , P21/c ,1,0,1.39262900717,0.704285606688
5063, XIBCOC , CCOC(=O)C(C=CN([O])=C1C(=O)N(CC=C)c2ccccc12)=Cc1cccc(OC)c1 , P21/c ,1,0,1.29425802456,0.6739340271950001
5064, MEZNOX , CCC(C(Nc1ccc(cc1)N(=O)=O)c1ccccc1)C(=O)c1ccccc1 , P21/c ,1,0,1.3213586229,0.7087528344670001
5065, HUZYEG , CC(C)CN(N=O)C(CN(N=O)C(CN(C)N=O)Cc1ccccc1)Cc1ccccc1 , P21 ,0,1,1.20081068204,0.646906298003
5067, TUBYIY03 , OCC(CO)(N(=O)=O)N(=O)=O , P212121 ,0,0,1.65356293485,0.712333829967
5068, GEGMIR , O=C1c2ccccc2N(Cc2ccccc2)[N+](=C1c1ccccc1)[O-] , P-1 ,1,1,1.34387101867,0.68706416736
5069, JALRIA , CC1CCC2N(C1)CC1C3CC4C(CC(=O)C5CC(CCC45C)OC(=O)Nc4ccccc4N(=O)=O)C3CCC1C2(C)O , P212121 ,0,0,1.25350897651,0.666220659827
5072, NEZBIE , COc1ncc(OC(=O)c2ccc(cc2)N(=O)=O)c2C=CNc12 , C2/c ,1,1,1.50337002532,0.713348798095
5074, KOGWUY , CC1(C)CC2=C(c3ccccc3N2CC#CC#CCN2C3=C(c4ccccc24)C(C)(C)N([O])C(C)(C)C3)C(C)(C)N1[O] , Pbca ,1,0,1.1943769262700001,0.667677448338
5075, YEFNON , Cc1ccc(cc1)C(C)=NNC(=O)CN1C=C(N=C1C)N(=O)=O , P21/c ,1,0,1.3083121554100001,0.6627760713759999
5076, POYXIL01 , OC1CCCC(C1O)[N+]([O-])(Cc1ccccc1)Cc1ccccc1 , P21/c ,1,1,1.23812392452,0.677278278674
5077, GADBAP , CC(=O)c1cc(ccc1O)N(=O)=O , Pca21 ,0,0,1.49974332224,0.7364746283670001
5078, SAVVAO , CN1C(=O)N(C)c2nc(c3ccccc3O)c(cc2C1=O)N(=O)=O , P21/n ,0,0,1.4369513428999998,0.67346065699
5081, FUDWAC , Cc1ccc(Nc2nc([n+]c2N([O-])c2ccc(C)cc2)c2ccccc2)cc1 , P21/n ,0,0,1.29385367616,0.684794214716
5083, CANXIA , OCC(CO)(N(=O)=O)C(CO)(CO)N(=O)=O , P1 ,0,1,1.69006068273,0.763599537037
5084, XIKQEP , CC1=NOC(=C1N(=O)=O)CC(C1C=CC(=O)N1C(=O)OC(C)(C)C)c1ccc(cc1)C#N , P65 ,0,0,1.22617479332,0.613823785544
5085, DUXFIM , COC1[N+](=C(CC1(C)C)C=Cc1c2ccccc2cc2ccccc12)[O-] , P-1 ,1,1,1.2444613094900001,0.682062298604
5086, QOFQOR , CC1(C)N(O)C(N(O)C1(C)C)c1ccc(cc1)N(=O)=O , P21/c ,1,1,1.30005607608,0.6714989145970001
5087, UBINEA , [O]N1=C(O)Cc2ccccc12 , Fdd2 ,0,0,1.47327310938,0.734466132218
5088, BOJVON , O=C(c1ccccc1)c1ccc(cc1)N(=O)=O , P21/n ,0,1,1.4494829330899999,0.732060047562
5089, ZIXTIJ , CC1C2C(CON2C(C)(C)C)CN1Cc1ccccc1 , P212121 ,0,0,1.11153860498,0.644786005435
5090, CYNOAZ10 , [O]N1C2CCCC1CC(=O)C2 , P21/c ,1,0,1.32154212109,0.699014597263
5092, VOFBID , Oc1ccc(NC(=O)c2ccccc2N(=O)=O)cc1 , Pbca ,1,0,1.45620680311,0.702230259192
5093, QIBVEF , CC1CC(N(OCc2ccccc2)C1=O)c1ccccc1 , P21/n ,0,1,1.22774984919,0.669051678642
5095, SIRXAS , CC1(C=CC(C)(c2ccccc12)C(N(=O)=O)(N(=O)=O)N(=O)=O)N(=O)=O , P21/c ,1,0,1.5331282823899999,0.700740740741
5096, GIHPUI , O=N(=O)CC(c1ccccc1)N(=O)=N(=O)C(CN(=O)=O)c1ccccc1 , P-1 ,1,1,1.4255776886000002,0.693283279221
5097, KAYSUY , O=Cc1ccc(cc1)N(=O)=O , P21 ,0,0,1.65055876316,0.757678952991
5099, DOHFEL , CC12CC(C(C(O1)c1ccccc1N2)N(=O)=O)C1=CC=CO1 , Pbca ,1,0,1.35161502431,0.669435340488
5100, COQQAA , CC12CCC3=NON=C3C1CCC1C2CCC2(C)C1CCC2=O , P212121 ,0,0,1.2547643392399999,0.681446697695
5101, EYUFEJ , O=NN(CCCON(=O)=O)CN1C(=O)C(=O)c2cc(ccc12)N(=O)=O , P21 ,0,0,1.58302987972,0.711260387122
5102, CAXMUK , CC(C)C1C(OC(=O)c2ccc(cc2)N(=O)=O)C(=O)C=C1C , P21/c ,1,0,1.3399680938299998,0.68958359025
5104, GAGHIG , COc1ccc(cc1)N(C(CC(C)C=C)c1ccccc1)C(=O)c1cc(cc(c1)N(=O)=O)N(=O)=O , P-1 ,1,1,1.28858565945,0.6578449905479999
5105, TIJPEI , O=C1c2cccc[n+]2[N-]c2cc(ccc12)N(=O)=O , P21/n ,0,0,1.5819858525100001,0.743038088394
5106, AZIQOP , Cc1ccc(cc1)N1C=NC(=C1C)N(=O)=O , P21/a ,0,0,1.3802469050100001,0.7141459827169999
5108, GEJBED , CC1=CC(=NO1)N=C1N(Cc2ccccc12)C1=NOC(=C1)C , P21/c ,1,0,1.37213948306,0.6894288150040001
5109, HUYGIT , COc1ccc(cc1)C(=CC=Cc1ccc(cc1)N(=O)=O)C#N , P-1 ,1,1,1.3218782323,0.685572676964
5110, XEWVON , OC12CCCCC1c1ccc(c3C4=C(CCCC4)N(O2)c13)N(=O)=O , P21/c ,1,0,1.35304424067,0.688634998159
5111, DAGREJ , CC1(C)C2CCC31C(C2)OC(=O)N3C(=O)C(O)CN(=O)=O , P212121 ,0,0,1.44130789862,0.703521190363
5112, LICMIT01 , CC1(C)N([O])C(=N([O])C1(C)C)c1cc(O)ccc1O , P21/n ,0,0,1.32963970059,0.6830432937180001
5113, MEWRIR , COc1ccc(cc1)C1=NOC(=C1C(O)=O)C , P21/c ,1,1,1.3873604283399998,0.685749385749
5114, ZIBXOA , CCN1c2ccccc2c2cc(ccc12)C=C(C#N)c1ccc(cc1)N(=O)=O , Fdd2 ,0,0,1.3506104184399998,0.702286028431
5115, MAZXEQ , O=C1C2CC(C(=O)c3cc(ccc23)N(=O)=O)c2ccc(cc12)N(=O)=O , C2/c ,1,1,1.58756047069,0.7334671327590001
5116, ODOWOW , O=C(OCC1CC21C1C=CC2c2ccccc12)c1cc(cc(c1)N(=O)=O)N(=O)=O , P-1 ,1,1,1.4227689295800001,0.690038314176
5117, ADOJEI , CC(=NO)C(C)=NCc1ccccn1 , P21/c ,1,0,1.2378928412999999,0.672122204037
5118, IROZAR , O=C1Nc2ccccc2C21NC(C(C2c1ccccc1)N(=O)=O)c1ccccc1 , P-1 ,1,1,1.31084798918,0.657506769632
5119, UCIHOF , CN1C(=NC(=Cc2cc(ccc2O)N(=O)=O)C1=O)C , C2/c ,1,0,1.53100092525,0.740035478346
5120, POWPEX , NC(=O)c1ccccc1N=Cc1ccc(cc1)N(=O)=O , P21/c ,1,0,1.4071659605200002,0.693947468595
5122, MILDAM , COCOCC1OC(C2OC(C)(C)OC12)N1C(=O)NC(=O)C=C1N(O)C(C)(C)C , P212121 ,0,0,1.27229487494,0.637823879552
5123, EWIWOY , O=N(=O)c1ccc(Nc2ccccc2c2ccccn2)cc1 , Pca21 ,0,0,1.3959680147799998,0.712602147633