ID,name,smiles,space_group,inversion_symmetry,beta_packing,density,packing_coefficient
9123, SUFHUY , O=N(=O)OCC1=NN(C(=N1)CON(=O)=O)N(=O)=O , Pna21 ,0,0,1.7924253167099997,0.722150793651
9124, LILJOF , COc1cc(C=Cc2ccc(cc2N(=O)=O)N(=O)=O)cc(OC)c1OC , P212121 ,0,1,1.4314126557799998,0.703333956794
9126, CACHAP , ON1N=Nc2ccccc12 , C2/c ,1,0,1.4522606892299998,0.688037634409
9128, PUNDOT , Cc1cc(C)c(c(C)c1N(=O)=O)N(=O)=O , P212121 ,0,0,1.41072230204,0.698465432685
9129, OSIGUU , CCOC(=O)C1=CN(N=N1)C1=C(N=CN1C)N(=O)=O , P21/c ,1,0,1.4387257504299997,0.712920554142
9130, KUTFOU , CN(C)CCCN1C(=O)c2cc(ccc2Oc2ccccc12)N(=O)=O , Pbca ,1,0,1.32055456176,0.611039870494
9131, MENPED , CN1c2ccccc2C2=C1C1(C(CC2c2ccc(cc2)N(=O)=O)C(=O)c2ccc(C)cc2)C(=O)N(Cc2ccccc2)c2ccccc12 , Pna21 ,0,0,1.26187145843,0.651895328349
9132, QAKGOB , CCCCC(CC)CN1c2ccc3Nc4cc(Nc5ccc6N(CC(CC)CCCC)c7ccc(Nc8cc(Nc9ccc1c(c9)c2c3)c(cc8N(=O)=O)N(=O)=O)cc7c6c5)c(cc4N(=O)=O)N(=O)=O , R-3 ,1,0,1.2501435175,0.63225735947
9133, SEJCUG , Cc1cc(C)c(c(C)c1)C1=NOC(=C1C(N)=O)c1ccccc1 , P21/n ,0,0,1.24672540894,0.660737958462
9134, UKAXAG , O=N(=O)C1=CC=C(NC(c2ccccn2)c2ccccn2)C2=NON=C12 , C2/c ,1,0,1.4970674579799998,0.7177767888050001
9135, INIFOC , C=CCC12C(CCOC1c1ccccc1)CON2C(=O)CN(=O)=O , P21/c ,1,0,1.34664877174,0.68376572327
9136, RERWAO , COC(=O)C1(CC(ON2OC3CCCCC3C(C12)c1ccc(OC)cc1)c1ccccc1)C(=O)OC , P-1 ,1,1,1.2855247131,0.672994531146
9137, IQOQUB , COC1OC2COC(OC2C=C1C(C#N)(C#N)C(=CC=O)c1ccc(cc1)N(=O)=O)c1ccccc1 , P21 ,0,0,1.33002813026,0.659257142857
9138, TUCROZ , O=N(=O)c1ccc2NC=C(C(C=C(C#Cc3ccccc3)c3ccccc3)c3ccccc3)c2c1 , Pbca ,1,0,1.24180240611,0.6526137068600001
9139, CEFVUG , ON=C1C(=O)c2ccccc2c2ccccc12 , Pca21 ,0,0,1.47909890304,0.764763283808
9140, KOMSEL , CCOC(=O)C1=NOC(=C1C(C)=NNc1ccc(cc1N(=O)=O)N(=O)=O)COCc1ccc2ccccc2c1 , P-1 ,1,1,1.47571136019,0.715795684856
9142, WAPQIO , CC(C)(C)OC(=O)C(C)(C)NC(=O)C(C)(C)NC(=O)C(C)(C)NC(=O)C(C)(C)NC(=O)C1(CC(C)(C)N([O])C(C)(C)C1)NC(=O)C1(CC(C)(C)N([O])C(C)(C)C1)NC(=O)OCC1c2ccccc2c2ccccc12 , P21/c ,1,0,1.0903400605,0.586985046544
9143, AROFIW , ON=C1C=CC(c2ccccc12)=C(C#N)c1ccccc1 , Pbca ,1,1,1.2974338911299999,0.686112499306
9144, TUNQOI , CCON=C1C(Nc2ccccc12)=C1C(=O)Nc2ccccc12 , P21/c ,1,1,1.33606466463,0.624339735894
9145, DIBQUA , Cc1ccc(cc1)C1C(=NOC21N(Cc1ccccc1C2=O)c1ccccc1)c1ccc(cc1)N(=O)=O , P21/n ,0,0,1.33511681732,0.679038245306
9146, APUMIJ , CCCCNc1cc(c(C)c[n+]1[O-])N(=O)=O , P21/c ,1,0,1.32634767291,0.689354311541
9148, FUHSIK , COC(=O)C1(C(C(C(N1c1ccccc1)c1ccccc1)N(=O)=O)c1ccccc1)C(=O)OC , Pbca ,1,0,1.3209001611799998,0.685981734005
9149, KIBGIO , CC(C)(C)NC(=O)Nc1ccc(c[n+]1[O-])N(=O)=O , P-1 ,1,1,1.4027525259,0.6851358024690001
9150, CETMET , O=C(OC12CCC31CCC13CCC31CCC13CCC21)c1cc(cc(c1)N(=O)=O)N(=O)=O , P21/c ,1,0,1.36989584277,0.690141056535
9151, FUCMAR , CC1=C(C(=NO1)C)C(=O)N1CCCC1CO , P212121 ,0,0,1.3263961895899998,0.623786876206
9152, FICVAQ , C=CCN1C(=O)N(CC2CC(=NO2)c2ccncc2)c2ccc3C(=O)c4ccccc4C(=O)c3c12 , P-1 ,1,1,1.40314568329,0.6980949555660001
9153, OMEXOT , ON(C1CCCCC1)C1=C(N2CCOCC2)C(=O)C1=O , P21/c ,1,0,1.31620080964,0.686502552174
9155, AXOKAA , CC1(C)OC2CC3(CC2O1)C(=O)N(O)Cc1ccccc31 , P21/c ,1,1,1.33801942999,0.681359336187
9158, HABYIS , CC(CC=NNc1ccc(cc1N(=O)=O)N(=O)=O)C1(CCCCCCCCCCC1=O)C#N , P-1 ,1,1,1.2965986929,0.687205192468
9159, EDUSAA , None , P21/c ,1,0,1.21815155066,0.770942735684
9160, JUGSOT , CC12ON1C(N1OC21C)(c1ccccc1)c1ccccc1 , P-1 ,1,0,1.48183438595,0.7097648395839999
9162, IYENOR , CC(C)OC(=O)C1(CCC(=NNc2ccc(cc2N(=O)=O)N(=O)=O)C2CCCC12)C(=O)OC(C)C , P-1 ,1,1,1.3456595858899998,0.6755617642139999
9163, BUFMOF , COc1cc(OC)c(C(=O)C=Cc2cc3OCOc3cc2N(=O)=O)c(OC)c1 , P-1 ,1,1,1.4569790263799998,0.700697077168
9164, KIJFUG , CCOc1ccc2cc(ccc2c1c1c(OCC)ccc2cc(ccc12)C1=[N+]([O-])C(C)(C)C(C)(C)N1[O])C1=[N+]([O-])C(C)(C)C(C)(C)N1[O] , P41212 ,0,0,1.22126173373,0.645718442108
9165, SITQUJ , COc1c(cc(cc1N(=O)=O)N(=O)=O)N1C=NC=N1 , P-1 ,1,1,1.59109729314,0.7091567852439999
9167, YONJIU01 , CC12C3CON1OC(C3)(CC2c1ccccc1)OC1CCCCC1c1ccccc1 , P-1 ,1,1,1.23930867759,0.678864097363
9168, YOXMAB , O=C(OC1CCCC2(C1)OOC1(O2)C2CC3CC(C2)CC1C3)c1ccc(cc1)N(=O)=O , Pbca ,1,0,1.38136343779,0.695779927678
9171, ACNCHL , CC(C)CCCC(C)C1CCC2C3CC4N(N(=O)=O)C54CC(CCC5(C)C3CCC12C)OC(C)=O , P21 ,0,0,1.1484975369200001,0.6535570008780001
9172, TOYYIP , Cc1ccnc(c1)c1cc(Cc2ccc(cc2N(=O)=O)N(=O)=O)ccn1 , P21/c ,1,0,1.38389800738,0.680677655678
9173, ENIGIT , O=C(NC1CCCCC1)C1N(CC2CC3OC12C=C3)c1ccccc1N(=O)=O , P-1 ,1,1,1.36540810128,0.710699152542
9175, TAKJIZ , COc1cc(O)c2C(CC(Oc2c1)c1ccccc1)=NO , P21/n ,0,0,1.39566471246,0.707612268816
9176, SOYJOF , O=N(=O)c1ccc(NN2C=NC(=C2c2ccccc2)c2ccccc2)cc1 , P21/n ,0,0,1.34275301553,0.703733548214
9177, LEGFAG , CC1(C)CC(=C(C(C=Cc2ccc(cc2)N(=O)=O)C2=C(O)CC(C)(C)CC2=O)C(=O)C1)O , C2/c ,1,0,1.2597165957799998,0.658016929652
9178, BEKKEK , O=N(=O)N(CN(C1=NON=C1C#N)N(=O)=O)C1=NON=C1C#N , P21/c ,1,0,1.6994039063600002,0.6939574874609999
9179, JUDVEJ , CC(C)CCCC(C)C1CCC2C3CC(=NO)C4(CC(CCC4(C)C3CCC12C)OC(C)=O)OC(C)=O , P212121 ,0,0,1.1164130831299999,0.6316503965829999
9180, MOSRAO , CCC(C)C1NC(=O)C(=C(C)NNc2ccc(cc2N(=O)=O)N(=O)=O)C1=O , P21 ,0,0,1.4796027156099998,0.723529411765
9181, TAPQAD , O=N(=O)c1ccc(Oc2ccc(cc2)C#N)cc1 , P21/c ,1,0,1.43624811707,0.7050273141850001
9183, EZUVOM , COCCOCCOCCOC(=O)c1ccc(NC(=O)c2ccc(c(c2)C2OCCO2)N(=O)=O)c(c1)C1OCCO1 , P21/n ,0,0,1.4614154704700002,0.724045225415
9184, PESWAN , COc1ccc2ccc(O)cc2c1OCc1ccc(cc1)N(=O)=O , P21/c ,1,1,1.46855696914,0.74019138756
9185, LEWJUS , OC1(CN(=O)=O)C(=O)c2cc(ccc2c2ccc(cc12)N(=O)=O)N(=O)=O , P21/n ,0,0,1.63377964609,0.721668795232
9187, TABFEH , COC1OC2COC(C)OC2C(ON(=O)=O)C1ON(=O)=O , P212121 ,0,0,1.51340866593,0.614639792231
9188, CEKNIP , CC(C)CC12CC3CCC(C(=NO)C1=O)C23C , P21/c ,1,1,1.17716688917,0.639616539617
9189, DNTNAP10 , O=N(=O)c1cccc2cccc(c12)N(=O)=O , P212121 ,0,0,1.58996324425,0.759627463721
9190, DNEDAM , O=N(=O)NCCNN(=O)=O , Pbca ,1,0,1.70906818144,0.7495655479530001
9191, PEXROZ , Cc1ccc(C)c2c1C(=CC(C2(C)N(=O)=O)C(N(=O)=O)(N(=O)=O)N(=O)=O)C , P-1 ,1,1,1.52362082419,0.667146820316
9192, REBHEN , CN1CC2C3=C(C=NN3c3ccccc3)C3(CN(C)CC3C2(C1)N(=O)=O)N(=O)=O , Pbcn ,1,0,1.4205724705,0.701959712351
9193, KOWZAX , CCOC(=O)C(=Cc1ccc(cc1)N(=O)=O)C(=O)OCC , P1121/b ,0,0,1.3520470674399998,0.6910785907860001
9194, BEXTIK , COc1ccc(cc1)C1C=CCN1C(=O)OC1CC(C)CCC1C(C)(C)c1ccc(cc1)N(=O)=O , P21 ,0,0,1.2111695254000001,0.651843317972
9195, PUBMUU10 , O=N(=O)N1C2C3N(C1C1N(C(C(N3N(=O)=O)N1N(=O)=O)N2N(=O)=O)N(=O)=O)N(=O)=O , P21/n ,0,0,1.92831648472,0.7249667405760001
9196, DENCAA , COc1ccc(cc1)C1=NN=C(OC1)c1ccccc1N(=O)=O , P-1 ,1,1,1.43437260313,0.7097169512970001
9198, MENOAN , CN(N=O)c1ccc(C)cc1Cc1cc(C)ccc1N(C)N=O , Pbca ,1,0,1.23613015016,0.670043918364
9199, UBOZAO , Cc1cc(C)c(C(=O)ONC(=O)C(N2C(=O)c3ccccc3C2=O)C(C)(C)C)c(C)c1 , P212121 ,0,0,1.25999671998,0.663581267218
9200, FAMVIY , CNC(=O)CC(C)(C)N1OCCCO1 , Pbca ,1,0,1.19994413562,0.660840277778
9201, RAJDUB , O=C(OC1CCC=CCC21CCCC12OCCO1)c1ccc(cc1)N(=O)=O , P21/c ,1,0,1.3845649941,0.705100379816
9202, JEKGIS , CC(C)(C1C(C(CC(=O)c2ccccc2)c2ccccc12)N(=O)=O)c1ccc(cc1)N(=O)=O , P21/c ,1,0,1.3316791358600002,0.693476812367
9204, HAKLUB , CC1(C)C2=CC=C(N2)C(=C2C=CC(=N2)C(C)(C)C2=CC=C(N2)C(C)(C)C2=CC=C1N2)c1cccc(c1)N(=O)=O , P-1 ,1,0,1.27641909212,0.685152534033
9205, PALQOL , CN1C(=C(c2ccccc12)C1=C(C=C(C2=NON=C12)N(=O)=O)N(=O)=O)C , P21/c ,1,0,1.5500742779199999,0.720277777778
9206, YIXQAY01 , Oc1ccc(cc1C=NNc1ccc(cc1N(=O)=O)N(=O)=O)N(=O)=O , P21/n ,0,0,1.70951669968,0.765965136054
9208, ZIWWEH , COc1ccc2OC(=Cc3ccc(cc3)N(=O)=O)C(=O)c2c1OC , P21/n ,0,0,1.47087092016,0.7141302094130001
9210, UQIKAH , CC1(C)OC2OC3C(OCC4=CON=C34)C2O1 , P212121 ,0,0,1.38354033252,0.66273384567
9211, EKEMEM , O=C1CCCN1C(=O)COc1ccc(cc1)N(=O)=O , P-1 ,1,1,1.5073481978799999,0.734291634292
9212, JODHOA , NC1=NN=NN1c1ccc(cc1)N(=O)=O , P-1 ,1,1,1.5401646702399998,0.699244186047
9213, BEBHIC , O=N(=O)c1ccc(cc1)c1cc(nc2ccc3ccccc3c12)c1ccccc1 , P-1 ,1,1,1.34507875619,0.681155579115
9214, ZAVMIV , COC(=O)C(C)NC(=O)c1cc(cc(c1)N(=O)=O)N(=O)=O , P21 ,0,0,1.47066738621,0.687379739672
9216, CUSMIO , CC1(C)CCCC(C)(C)N1OC1N(Cc2ccccc2)C(=O)C(CC=C)N(Cc2ccccc2)C1=O , P21/c ,1,0,1.21389153081,0.6787897727269999
9218, EKAGUU , CC1(C)C2CC3C(=NOC3(C(O)OC(O)C34ON=C(C3CC3CC4C3(C)C)c3ccc(cc3)N(=O)=O)C1C2)c1ccc(cc1)N(=O)=O , P21 ,0,0,1.35460395876,0.672260774465
9219, HAWMAU , COC(=O)C(=Cc1ccc(OC)cc1)N(=O)=O , P21/n ,0,1,1.3759290300799998,0.6735539413510001
9220, PABTUK , COc1ccc(C=C(C)N(=O)=O)c(CC(C)=O)c1OC , P21/c ,1,0,1.3447397813100002,0.7087801087800001
9221, CELBAW01 , O=N(=O)C1=NC=CN1 , P21/c ,1,1,1.7182990692700002,0.7677901430840001
9223, NAZXIX , COC(=O)C(=CNc1ccc(OC)cc1)C(C(C#N)C(=O)C(C)(C)C)c1cccc(c1)N(=O)=O , P21/c ,1,0,1.30123882268,0.6734474373360001
9224, YUGFIR , NC(=O)OCCCC(N(=O)=O)(N(=O)=O)N(=O)=O , P21/c ,1,0,1.6379273934099998,0.704498094784
9225, IZIJOQ , O=C1CCCCCC2=CCON1C2 , P21/c ,1,0,1.30468658914,0.716296296296
9226, EBATOQ , O=C1C2CC(=NNc3ccc(cc3N(=O)=O)N(=O)=O)C3CCCCC3C2C(=O)N1c1ccccc1 , P212121 ,0,0,1.4042862912600003,0.685361295681
9228, PACNOY , CCOC(=O)C1=CC(=NN1CC(=NO)c1ccccc1)c1ccc(OC)cc1 , P21/c ,1,0,1.29153122141,0.6680158730160001
9229, QOFYER , COC(=O)C(=CNCCC1=CNc2ccccc12)C1C(C(Oc2ccccc12)c1ccc(C)cc1)N(=O)=O , P21/c ,1,0,1.2715278044,0.654973262032
9230, FUBHAL , CC1COC(=O)CCCCCCCC(C1)=NNc1ccc(cc1N(=O)=O)N(=O)=O , P212121 ,0,0,1.33304136518,0.68392681748
9231, MBZPNA10 , Cc1ccc(cc1)C=Nc1ccc(cc1)N(=O)=O , P21/c ,1,0,1.33258871112,0.688994282744
9232, ZAYGUE , OC(=O)CN(N(=O)=O)C(CON(=O)=O)(CON(=O)=O)CON(=O)=O , P21/c ,1,0,1.77128817789,0.722512346958
9233, ACANIB , CC(C)c1cc(cc(C(C)C)c1NC(=O)c1ccc(cc1)N(C)C)N(=O)=O , P21/c ,1,0,1.21553298199,0.6742848654610001
9235, YAHDUG , CC1(C)CC(CC(C)(C)N1[O])OC(=O)C12CC3CC(C1)CC(C3)(C2)C(=O)OC1CC(C)(C)N([O])C(C)(C)C1 , P21/c ,1,0,1.16667188521,0.643398172709
9236, KIKFOZ01 , O=N(=O)c1ccc(cc1)C1=NN(C(N([N]1)c1ccccc1)c1ccccc1)c1ccccc1 , P-1 ,1,1,1.31842620499,0.6683166896239999
9238, QACWID , CC(=O)C1=CON=C1C1CCCN1C(=O)OC(C)(C)C , P212121 ,0,0,1.2183843256,0.64895507973
9239, HUNGIG , CC1=NN(c2ccccc2)C(=O)C1=C(NNC(=O)c1ccc(cc1)N(=O)=O)c1ccccc1 , P21/c ,1,0,1.4568720883200001,0.632694405485
9240, DEGCEY , COc1ccc(C=CC(=O)c2ccc(cc2)N(=O)=O)cc1 , P212121 ,0,0,1.448591024,0.74225443787
9241, YUYCOK , ON=CC1=CC=C(O1)N(=O)=O , P21 ,0,0,1.6141978733700002,0.715651889263
9242, UJUKEP , ON=Cc1cccc(C=NO)c1 , C2/c ,1,1,1.4533680156,0.746265172736
9243, NAYQEJ01 , CCOC(=O)Nc1cc(ccc1C#Cc1ccc(OCc2ccccc2)cc1)N(=O)=O , Cc ,0,0,1.29880602555,0.6762989840350001
9244, AJEQIQ , CC1(C)N([O])C(=[N+]([O-])C1(C)C)c1ccc2ccccc2[n+]1[O-] , P21/c ,1,0,1.3151702472,0.680790960452
9246, MUBQAC , CC(=NOCCCCCCCCCCON=C(C)c1ccccc1O)c1ccccc1O , C2/c ,1,1,1.1815182936700002,0.665447365815
9248, QOHSAI , COC1N2OC(=O)N(c3ccccc3)C2(C)C(=C)C1(C)C , P21/c ,1,0,1.2565301477200002,0.669203621298
9249, TOHZEV , COC(=O)N(N(=O)=O)C12C3C4C1(C1C2C3(N(C(=O)OC)N(=O)=O)C41N(C(=O)OC)N(=O)=O)N(C(=O)OC)N(=O)=O , P21/c ,1,0,1.6762590562000002,0.670495430495
9250, BTHYDX , Cc1ccc(cc1)C(=O)ONC(=O)c1ccccc1 , P21/c ,1,0,1.25433639255,0.647615563511
9251, CEPQEU , O=N(=O)c1ccc2OC(N3CCOCC3)C3(CCCCC3)Nc2c1 , P-1 ,1,1,1.3309490318200001,0.676235679214
9252, VIDFIY , CCOC(=O)C1=C(C)OC2=C1C(=O)N(C(=N2)Oc1cccc(c1)N(=O)=O)c1ccccc1 , Ibca ,0,0,1.40292707724,0.670705071326
9254, BAQLEK , COC1OC(C(OC(C)=O)C(OC(C)=O)C1OC(C)=O)C(CCC#N)(CCC#N)N(=O)=O , P212121 ,0,0,1.33719557322,0.665975660066
9255, WUNKEX , CCOC(=O)C1(C(CON2C(C)(C)CCCC2(C)C)CC(C(=O)OC(C)(C)C)C1(C)C)C(=O)OCC , P21/c ,1,0,1.15054821097,0.657545890697
9256, YAFMEY , COc1ccc(Oc2ccc(cc2)C(=O)ON2C(=O)CCC2=O)cc1 , P21/c ,1,0,1.36970271356,0.674843088324
9257, FIZLAD , CC1C(N(Cc2ccccc2)c2ccc(cc2C1=O)N(=O)=O)c1ccccc1 , P21/c ,1,0,1.2957229048999999,0.6681258910310001
9258, OKUTUK , CN1c2ccccc2C(C)(C)C1=CC(=O)c1ccc(cc1)N(=O)=O , P-1 ,1,0,1.27671539069,0.680052000578
9260, FIJPIZ , CC(C)OC(=O)C(=O)C1C(C1N(=O)=O)c1ccccc1 , P21 ,0,0,1.27108061541,0.656873043335
9262, JARLOD , CCN(CC)c1c(c(N(CC)CC)c(c(N(CC)CC)c1N(=O)=O)N(=O)=O)N(=O)=O , P21/c ,1,0,1.29173227169,0.664296186679
9263, FULJIF , CC(=O)OC1CCCC(OC(=O)C23CCC(C)(C(=O)O2)C3(C)C)C1N(=O)=O , P21 ,0,0,1.2520209363600001,0.6549422799419999
9265, WAMSUZ , CON1C=CC(=O)N2CCN=C12 , P21/c ,1,1,1.4769508122,0.7342703596529999
9267, NUKMAJ , CC12CCC(CC(=O)c3ccc(cc3)N(=O)=O)C(CCC1=O)C2=O , P212121 ,0,0,1.37983753768,0.7114032481679999
9268, YOVLAX , CC(=NOCCCCCCCON=C(C)c1ccc2ccccc2c1O)c1ccc2ccccc2c1O , Cc ,0,0,1.24209874908,0.668621445431
9269, FESQEB , CCOC(=O)C1CCC2(O)C(C1)C(=O)CCC2N(=O)=O , P21/c ,1,0,1.37372200003,0.6984959666930001
9271, YUXCIE , CN1OCCC21C(O)COC2=O , P21 ,0,0,1.40407532389,0.688695260532
9272, PAVCIZ , CC1(CC21CCCC2OC(=O)c1cc(cc(c1)N(=O)=O)N(=O)=O)OC(=O)c1cc(cc(c1)N(=O)=O)N(=O)=O , P21/c ,1,0,1.50823839349,0.692484580316
9273, YISZIJ , NN=C(CC(N1N=C(CC1c1ccccc1N(=O)=O)c1ccccc1)c1ccccc1N(=O)=O)c1ccccc1 , P21/c ,1,0,1.31602351237,0.670947716773
9274, ANITAU , CC(C)(C)C(=O)Nc1ccc(c2cccnc12)N(=O)=O , P-1 ,1,1,1.31705967839,0.674854469552
9275, SEDHOB , COC(=O)c1cc2OCC=CCCOc3cc(nc4c3cccc4N(=O)=O)C(=O)Nc3cccc4c(OCC(C)C)cc(nc34)C(=O)Nc3cccc4c(OCC(C)C)cc(nc34)C(=O)Nc3cccc4c(OCC(C)C)cc(nc34)C(=O)Nc3cccc4c(OCC(C)C)cc(nc34)C(=O)Nc3cccc2c3n1 , P21/c ,1,1,1.30185643811,0.648513369423
9276, IQOPIO , CC(CC(CN(=O)=O)c1ccccc1)=C(C#N)C#N , Pbca ,1,0,1.21887984782,0.648326898327
9277, YAXGAI , CON(C)C(=O)C12CC31C(CN2C(=O)OC(C)(C)C)NC(=O)c1nc2ccc(OC)cc2cc31 , P21/c ,1,0,1.16045307003,0.581393596987
9279, HEPMEV , CNc1ccc(cc1)C(=O)Oc1cc(ON=[N+]([O-])N(C)C)c(cc1N(=O)=O)N(=O)=O , P21/n ,0,0,1.48989923916,0.698545116855
9280, YUMPIG , O=C1NC(=NO1)C1=NOC(=O)N1 , P21/n ,0,0,1.89896851868,0.753127522195
9282, GUBQEB , CCOC(=O)C1C(CN(=O)=O)C(C)(C)OC1=O , P21 ,0,0,1.4043761820299998,0.707889854506
9283, ZUKNEY , O=N(=O)C(c1ccccc1)=C1c2ccccc2C(=C1c1ccccc1)N(=O)=O , P21/c ,1,0,1.3478004725,0.663469756739
9284, AMIXPO , CC(=O)N1OC(=O)c2c(C)cc(C)nc12 , P21/c ,1,1,1.39448117131,0.7154392764859999
9285, UNUHIV , COc1ccccc1C=NNC(=O)c1ccc(cc1)N(=O)=O , P21/c ,1,0,1.37924016622,0.681975453715
9286, UCIXOT , Cc1cccc(C)c1OC(=O)c1cc(cc(c1)N(=O)=O)N(=O)=O , P21/c ,1,1,1.52978470488,0.740180906713
9287, RANWUY , CN1C=CC=CC1=NN(=O)=O , Pna21 ,0,0,1.56294556724,0.7666902989480001
9289, ZOBCEY , CC(C)(C)Nc1nc(nc(n1)C(N(=O)=O)(N(=O)=O)N(=O)=O)C(N(=O)=O)(N(=O)=O)N(=O)=O , P21/c ,1,0,1.63433117523,0.6538256566430001
9291, WIZGAP , O=C1C(CN2CCN3CCCN4CCN1C2C34)Cc1ccc(cc1)N(=O)=O , P21/c ,1,1,1.3439561832700002,0.6883055669820001
9292, HOLRUW , CC1(C)OCC(O1)C1OC2OC(C)(C)OC2C1=NOCc1ccccc1 , P21 ,0,0,1.24854500027,0.649493532803
9293, ASEYEC , CC(=O)Nc1cc(ccc1N1CCCC1CO)N(=O)=O , P212121 ,0,0,1.3793766443200002,0.633516855689
9294, FULRAG , COc1ccc(cc1)C1C(=NOC21N(Cc1ccccc1C2=O)c1ccccc1)c1ccc(OC)cc1 , C2/c ,1,0,1.32210776375,0.6809447257719999
9295, IFUVIP , Nc1ccc(OCCCOc2ccc(cc2)N(=O)=O)cc1 , Pccn ,1,0,1.3408980317599999,0.6897266677670001
9298, KERJUP , O=C(ON=C1CCC2COC1O2)c1cc(cc(c1)N(=O)=O)N(=O)=O , P212121 ,0,0,1.60089462667,0.727699064266
9299, ODULEE , CC(C)C(C)(NC(=O)OCC1c2ccccc2c2ccccc12)C(=O)NC(C)(C(C)C)C(=O)NC1(CC(C)(C)N([O])C(C)(C)C1)C(=O)NC(C)(C(C)C)C(=O)NC(C)(C(C)C)C(=O)NC(C)(C)C , P21 ,0,0,1.1455236133600002,0.648413178831
9300, NIJWEL , O=C(Nc1ccc(NC(=O)Nc2ccccc2N(=O)=O)cc1)Nc1ccccc1N(=O)=O , P-1 ,1,1,1.52471601646,0.7235951468709999
9302, KUGZIV , CCN(CC)C(=O)C(C)=C1CCCCC1=NO , P21/c ,1,1,1.12481222024,0.6367976217600001
9304, VALSEJ , CON=C1N(C(=O)C1=Cc1ccccc1)C(C)(C)C , P21/n ,0,1,1.2212284654999999,0.665062222466
9305, VEHFOG , CC=CCC1NC(=O)C(CC(C)C)NC(=O)C(CC(C)C)N(C)C(=O)C(C)NC(=O)C(Cc2ccc(O)c(c2)N(=O)=O)NC(=O)C(CC(C)C)N(C)C(=O)C(CC2=CN(c3ccccc23)C(C)(C)C2CO2)NC1=O , P21212 ,0,0,0.987674284155,0.524791839943
9306, UVATIW , CCC(CCC(O)=O)(c1ccccc1)N(=O)=O , P21/c ,1,1,1.33831412379,0.6948328427249999
9307, UDOQUC , O=N(=O)C1=NNC(=N1)C1=NON=C1N(=O)=O , Pbca ,1,0,1.8704404765599998,0.724588744589
9308, XIRJEP , O=N(=O)c1ccc(cc1)C(=Cc1ccc(cc1)N(c1ccccc1)c1ccccc1)C#N , P21/c ,1,0,1.2895483732100002,0.668050941307
9309, HICDUS , CCOc1ccc(cc1)C(=NO)C1CCC(C)(C(=O)OC)C1(C)C , C2/c ,1,0,1.1636673263,0.668431551949
9310, GIMSUR , NC1=N([O])C(NC1=NO)c1ccc(O)cc1 , P-1 ,1,1,1.51186547604,0.7017450042219999
9311, GUSPAL , CC1(C)OC2CN(O)C(C#N)C2O1 , P-1 ,1,1,1.24914759861,0.632953983177
9313, TMANSB , CN(C)c1ccc(N=O)c(c1)N(C)C , P212121 ,0,0,1.2826382654100001,0.7068531468529999
9314, RULCUY , CC(C)(C)OC(=O)N(O)C1CCc2ccccc2C1=O , Pca21 ,0,0,1.24956745403,0.660957068108
9315, BUTDID , O=C(Nc1ccc(cc1)N(=O)=O)c1ccccc1 , P-1 ,1,1,1.44120281608,0.734789308677
9316, JAXTOS , O=NN1CCOCCOc2ccccc2OCCOCC1 , Pca21 ,0,0,1.33934627126,0.6936227532160001
9317, LERZEP , CC1(C)CC(=O)C2=C(C1)OC1=C(C2c2ccc(cc2N(=O)=O)N(=O)=O)C(=O)CC(C)(C)C1 , P21/c ,1,0,1.37344641095,0.682284624173
9318, ZUQHAW , O=C(C1OC2=C(C1c1ccccc1)C(=O)c1ccccc1C2=O)c1cccc(c1)N(=O)=O , P21/n ,0,0,1.45910650153,0.713130639217
9319, CIZSUB , CC1C2C(=NOC2(N2CCOCC2)c2ccccc12)c1ccc(C)cc1 , P2/c ,1,0,1.26721993666,0.684429824561
9320, MULGUW , CN1C(=NC(=C1N(=O)=O)C=Cc1ccccc1)C , P21/c ,1,0,1.3575129483000001,0.7103153988869999
9321, KEZMEK , CN1C(=NC=C1c1ccc(cc1)N(=O)=O)C , Pbca ,1,0,1.3680787008000002,0.695460021137
9322, NEFVAY , O=C(ON=CC1=CC=CO1)c1ccccc1 , P21/c ,1,0,1.36794029336,0.6897694696610001
9323, KEXKED , O=N(=O)C(c1ccccc1)=C(N1CCOCC1)c1ccccc1 , P21/n ,0,0,1.29012538521,0.695977948598
9324, EMAZUO , O=N(=O)c1cccc2c1NN=C2N(=O)=O , P212121 ,0,0,1.7044620656799998,0.735223880597
9325, NERSOV , CCOC(=O)C(=O)C(=CNc1ccccc1)C(=O)c1ccc(cc1)N(=O)=O , P21/c ,1,0,1.3726888266400001,0.677957269411
9327, ICUSUX , CC1=NNC(=C1N(=O)=O)CC1N(CCc2ccccc12)c1ccccc1 , P-1 ,1,1,1.3268685608600002,0.689046556122
9329, MOMXAP , CCC12CCC(=O)N3c4ccccc4C(=C13)C(O)(N(OC)C(=O)C2)C(=O)OC , P21/c ,1,0,1.3856598880200002,0.694304443523
9330, ACNPHY01 , CC(C)=NNc1ccc(cc1)N(=O)=O , P21/c ,1,0,1.3588913331299999,0.7035379299
9331, UDOZOD , CO[N+]1=NOC(=O)[C-]1C(=O)OC , P212121 ,0,0,1.6952826356600001,0.764335054658
9334, WUTYER , O=C(Oc1ccccc1)N1OC2CC1C=C2 , P21/c ,1,0,1.37282858571,0.699679487179
9335, VANKAW , O=C(c1ccccc1)C1(ON(C2C1N(OC2(c1ccccc1)C(=O)c1ccccc1)c1ccccc1)c1ccccc1)c1ccccc1 , P-1 ,1,1,1.25929657206,0.6597756410260001
9336, XETKIS , O=N(=O)c1ccc(CN2C=CN=N2)c(c1)N(=O)=O , P212121 ,0,0,1.53954225238,0.696842334495
9337, LILKIB , CN(C)C(=O)CCc1ccccn1[O] , P21/c ,1,1,1.27917963934,0.697742733457
9338, KENHIW , Cc1ccc(cc1)N1C(=C(C#N)C(=C1c1ccc(C)cc1)c1ccc(cc1)N(=O)=O)N , P21/c ,1,0,1.27997330074,0.667787937358
9339, LAPWEH , Cc1cc(N2C=NN=N2)c(cc1N(=O)=O)N(=O)=O , P212121 ,0,0,1.56664836683,0.6956223380850001
9340, ADIPEJ , COc1c(O)cccc1N(=O)=O , Pna21 ,0,0,1.52783038924,0.73189033189
9341, HIHLUI , CCOC(=O)C1=C(C)NC(=C(C1C1=C(C)ON=C1c1cccc2ccccc12)C(=O)OCC)C , P21/c ,1,0,1.3053758600299998,0.687006527615
9342, WIMWAQ , CCC1CC21N=C(OC2C(=O)OC)c1ccc(cc1)N(=O)=O , P-1 ,1,1,1.37958095557,0.693862520458
9343, QQQELA03 , CC(=O)C(N=[NH]c1ccc(cc1)N(=O)=O)C(=O)Nc1ccccc1 , P-1 ,1,1,1.4303825065600002,0.71278881375
9344, DAJXUH , OC(=O)c1cc(ccc1N(=O)=O)N(=O)=O , C2/c ,1,0,1.7230646596099999,0.737319832147
9345, FUDVUV03 , OCC1CCCN1c1ccc(cc1)N(=O)=O , P21 ,0,0,1.41347443875,0.660357472857
9347, FOVZIA , COC(=O)c1cccc(c1O)N(=O)=O , P21/c ,1,0,1.5536106624000001,0.7206094954279999
9349, SUZMIK , COC(=O)CN([O])=Cc1ccc(OC)cc1 , P212121 ,0,0,1.33692226835,0.6901832276250001
9350, MINPEF , Cc1ccc(N=Cc2cccc(c2)N(=O)=O)c(C)c1 , C2/c ,1,1,1.29097238931,0.6800558626019999
9351, DACYEL , Nc1c(c(N)c(c(C(O)=O)c1N(=O)=O)N(=O)=O)N(=O)=O , P21/c ,1,0,1.8629309023099998,0.745158895159
9352, QOKQUD , CCOC(=O)C1(CC2CC1C=C2)N(O)c1ccccc1 , P-1 ,1,1,1.3001461673,0.6988401300239999
9353, ZENJUA , O=C1N2C3=C4C=CC(=N4)C(=C4NC(=C(c5ccc(cc5)N(=O)=O)C5=CC=C(N15)C(=C2C=C3)c1ccc(cc1)N(=O)=O)C=C4)c1ccc(cc1)N(=O)=O , P21/c ,1,1,1.3219216295,0.620990210362