ID,name,smiles,space_group,inversion_symmetry,beta_packing,density,packing_coefficient
10724, IJUKEE , Oc1ccc(cc1)C(=O)NN=Cc1ccc(O)c(c1)N(=O)=O , P21/n ,0,1,1.48512183372,0.696398601399
10725, YAPZEU01 , CC12CC3=C(ON=C3)C=C1CCC1C2CCC2(C)C1CCC2(O)C#C , P212121 ,0,0,1.23187278401,0.680181477747
10726, OLAWIJ , OC(Nc1ccc(cc1)N(=O)=O)(C(=O)c1ccccc1)C(=O)c1ccccc1 , P-1 ,1,1,1.4764061182600001,0.736077884104
10728, FEGJEH , CC(C)CC1NC(=O)C2=C(ON=C12)C=Cc1ccccc1 , I2/a ,0,0,1.2687763134799999,0.684461096541
10729, ODEMOA , CC(C)(C)OC1CCN2OC3COC(=O)C3C12 , P212121 ,0,0,1.24338415595,0.655864197531
10730, FOGLUJ , COC(=O)c1c(C)nc(C)c(C(=O)OC)c1c1ccc(cc1)c1ncc(cn1)c1ncc(cn1)c1ccc(cc1)N(=O)=O , P21/c ,1,0,1.37609616026,0.6808713748399999
10731, HUXXEE , COC(=O)C1=C(CC(N(C1c1ccc(C)cc1)c1ccc(cc1)N(=O)=O)c1ccc(C)cc1)Nc1ccc(cc1)N(=O)=O , P-1 ,1,1,1.28610605695,0.649016772701
10732, KAJVIC , CC(C)C1CCC(C)C(=C)C1OC(=O)c1cc(cc(c1)N(=O)=O)N(=O)=O , P21 ,0,0,1.32510367154,0.680797836376
10733, ABOFON , CCC(C)(C)c1ccc(OC)c(c1)C1C(C(ON1c1ccccc1)c1ccccc1OC)N(=O)=O , P-1 ,1,1,1.2351607566299998,0.658282844388
10734, UVOKAT , O1N=C2N=CC=NC2=N1 , Aba2 ,0,0,0.404957572153,0.713174143145
10736, GAGZOE , C1CC21ON(Cc1ccccc1)C(c1ccccc1)C12CC1 , P21/n ,0,1,1.22674847866,0.690504691663
10737, BURBUN , COC(=O)NN=O , P21/m ,0,0,1.56478258019,0.703133333333
10738, QEPJIG01 , CC(CN1C(=NC=C1N(=O)=O)C)OC(C)=O , P21/n ,0,1,1.3337215756,0.666849392087
10739, HEGSUK , [O-][n+]1cccc[n+]1[O-] , Pn ,0,0,1.6342560673299997,0.772922077922
10743, NOHNAZ , C[N+]([O-])=C(C#N)c1ccccc1 , P21/n ,0,0,1.2982676026100002,0.684844665941
10745, TECGUE , COc1nc(OC)nc(ON2N=Nc3ccccc23)n1 , C2/c ,1,0,1.4795924739500002,0.6847745232269999
10746, KOKCOC , O=C1C=Cc2cccc3ccc(Oc4c(cc(cc4N(=O)=O)N(=O)=O)N(=O)=O)c1c23 , P-1 ,1,1,1.6045326782499998,0.7210399356739999
10747, ZICBAO , CC(ON=Cc1ccccc1)C(O)=O , P21/a ,0,0,1.30245556599,0.697468873629
10749, QIXQOE , CC(=NOC(=O)C=C)c1ccccn1 , P21/n ,0,0,1.36064925564,0.721475507766
10750, METNAM05 , CN(C)N(=O)=O , P21/m ,0,1,1.4262098023700003,0.7231182795700001
10751, BAVTAT , COc1ccccc1C1C2=C(OC(=C1N(=O)=O)N)C=C(C)OC2=O , P21/c ,1,0,1.48120462565,0.710777528274
10754, PAVNOP , COc1cc(OC)c(cc1N([O])C(C)(C)C)N(=O)C(C)(C)C , P21 ,0,1,1.19899906409,0.6655086206899999
10755, GESWUX , COc1ccc(cc1)C=C1CCCC(=Cc2ccc(cc2)N(=O)=O)C1=O , P-1 ,1,1,1.3825620090200001,0.727873254565
10756, SATZOC , O=C1C2CC3C4C2C2(C1CC(C42)C3(N(=O)=O)N(=O)=O)N(=O)=O , P21 ,0,1,1.68216748729,0.7298354417
10757, GODPAS , CC1(C)CCCC(C)(C)N1OC(Cc1ccccc1)C(=O)N1C(Cc2ccccc2)C(C)(C)OC1=O , P212121 ,0,0,1.16878547228,0.660035886818
10759, IWIHAZ , O=C(Cc1ccc(cc1)N(=O)=O)c1ccc(cc1)N(=O)=O , P21/c ,1,0,1.44862253701,0.6955944055940001
10761, MIWFED01 , CC(=O)C1=C(C)NC(=C(C1c1cccc(c1)N(=O)=O)C(C)=O)C , P21/n ,0,0,1.3527776654299999,0.699549972325
10762, VUXLUV , COCC(O)CN1C=CN=C1N(=O)=O , P21/c ,1,0,1.4377771369,0.7147009966779999
10763, QONMUB , COc1ccc(CON=[N+]([O-])c2ccccc2)cc1 , P212121 ,0,0,1.30978051031,0.681150137006
10764, YOTTOR , CC(C)(C)C(=O)C=Cc1cccc(c1)N(=O)=O , Pnma ,1,1,1.2681881930399999,0.678628101786
10765, FUXBAC , CCOC(=O)c1cc(c2ccc(cc2)N(=O)=O)c(c(O)c1C)C(=O)OC , P-1 ,1,1,1.39833040134,0.692323758113
10766, MNPYDO07 , Cc1cn([O])ccc1N(=O)=O , P212121 ,0,0,1.5484896585299999,0.737920782808
10767, OVOLES , OC(C(C=C)c1ccc(cc1)N(=O)=O)C(=O)c1ccccc1 , P1 ,0,1,1.33153429444,0.6879176379180001
10768, XICRAC , CCC(NC(=O)OC(C)(C)C)C(O)C1C(C1c1ccccc1)C(=O)N(C)OC , P2 ,0,0,1.2203519353799999,0.672840226331
10769, MNIMET , CC1=NC=C(N1CCO)N(=O)=O , P21/c ,1,0,1.4496187439800001,0.708333333333
10770, HOMDIW , O1N=C2N3C=NN=C3C3=NN=CN3C2=N1 , P21 ,0,0,1.72689205025,0.7025693769879999
10772, CEGWES , O=N(=O)c1ccc(cc1)N=CC=C(c1ccccc1)c1ccccc1 , P21/c ,1,1,1.28951354748,0.679063288478
10773, EBOBIH , [O]N1c2ccccc2N(=C1c1cccc(c1)C#N)[O] , P21/c ,1,1,1.44637351944,0.720071141875
10774, QATYES , O=N(=O)C1=C(N(Cc2ccccc2)N=N1)c1cccc2ccccc12 , Pbca ,1,0,1.3558644725600002,0.6794442503300001
10776, XEKGUS , Cc1cc(C)c(Nc2c3cccc4C(=O)N(C(=O)c(cc2N(=O)=O)c34)c2c(C)cc(C)cc2C)c(C)c1 , P-1 ,1,1,1.28551276056,0.6681530898879999
10777, TEVHEH , O=N(=O)C1=NC(=CN1)N(=O)=O , Pbca ,1,0,1.77012189125,0.7211416824789999
10778, EYOLAG , CCC(C)C1N(OCc2ccccc2)C(=O)C(C(C)CC)N(OCc2ccccc2)C1=O , P1 ,0,1,1.22823299927,0.687525406504
10779, BOCPUE , CC(C)OC(=O)NC1=NON=C1C , P21/c ,1,0,1.26704576006,0.638969404187
10780, VIYMUN , COc1ccc(cc1C)N=O , P21/n ,0,0,1.33803369968,0.718297697368
10781, MEDXUR , O=C1CCC2(CC1C(c1ccccc1)C1=C(NOC1=O)c1ccccc1)OCCO2 , P212121 ,0,0,1.31892190742,0.676666968791
10783, CATJEM , None , Pbca ,1,0,1.9018682595599996,0.757757944007
10784, GAYMOL01 , O=C1NN=C(C1=[N+]=[N-])N(=O)=O , P21/n ,0,0,1.8068545227000001,0.728849860784
10785, AJEROY , Cc1ccncc1C1=N([O])C(C)(C)C(C)(C)N1[O] , P-1 ,1,1,1.22948091421,0.659450088695
10786, HAPQIA01 , CC1(C)N([O])C(=N([O])C1(C)C)C1=Nc2ccccc2N1 , Pbca ,1,0,1.4073071318500001,0.756707641734
10787, GUCRED , O=N(=O)c1ccc(NCc2ccccc2)cc1Nc1ccccc1 , P21/c ,1,0,1.3297977310299998,0.696938424493
10788, MDNPUR , CN(C(=O)N(C)c1ccc(cc1N(=O)=O)N(=O)=O)c1ccc(cc1N(=O)=O)N(=O)=O , Pbcn ,1,1,1.63586702748,0.690961538462
10789, KEFLEM , Nc1ccc(cc1)c1ccc(cc1)N(=O)=O , Pca21 ,0,0,1.35098897996,0.63811867066
10790, KIJGAN , CCOc1ccc2ccccc2c1c1c(OCC)ccc2cc(ccc12)C1=[N+]([O-])C(C)(C)C(C)(C)N1[O] , P212121 ,0,0,1.23047928583,0.654336753078
10791, VOXFAP , O=NN1C(CNC(=O)CC1c1ccccc1)c1ccccc1 , P212121 ,0,0,1.33172748174,0.697268260796
10793, COLBIO , CC12CCC=C3C(CC4(CCCC134)C1(CC1)C12CCC1)OC(=O)c1cc(cc(c1)N(=O)=O)N(=O)=O , P21/n ,0,0,1.37099165187,0.697832280441
10794, GINXUY , CC(=O)C(Cc1ccccc1)(ON1C(=O)c2ccccc2C1=O)C(C)=O , Pbca ,1,0,1.35096421651,0.691037693616
10795, KUGSUA , NC(=O)c1cccc(c1)C(=NO)c1ccccc1 , Pbca ,1,0,1.30789264,0.677692307692
10798, DOSMED , [O]N1=C(C(=O)c2ccccc12)c1ccccc1 , Pbca ,1,0,1.3775268781999999,0.69941091954
10800, MOKBOF , CC1(C)CC(CC(C)(C)N1[O])OCC#C , P212121 ,0,0,1.16655941689,0.691411764706
10801, OJETAY , COc1ccccc1C(=O)N(O)c1ccccc1 , C2/c ,1,0,1.3116816425,0.674487989886
10803, PODCBD , NC(=O)C1=NOC(=N1)c1ccccc1 , P-1 ,1,1,1.42542337058,0.6887228625030001
10804, DEJWEU , CCOC(=O)C(=C(C)O)c1ccc(cc1N(=O)=O)N(=O)=O , P1121/a ,0,0,1.44440152292,0.682617874736
10805, HOFBIO , CC(=Cc1ccc(cc1)N(=O)=O)C(O)=O , P-1 ,1,1,1.43585096418,0.705841730232
10806, CIBBEU , CC12C3CCC(O3)C1(C)C(=O)N(O)C2=O , P21/c ,1,0,1.4012428398299999,0.6812565965109999
10807, HOKLEA , CCN1C(=O)c2cccc3c(Oc4ccc(cc4)N(=O)=O)ccc(C1=O)c23 , P21/c ,1,0,1.46421152102,0.714124934979
10808, XIGQAG , CN(CCN(C)c1ccc(cc1N(=O)=O)N(=O)=O)Cc1c2ccccc2cc2ccccc12 , P-1 ,1,1,1.36216181166,0.696160203433
10809, IBORID , COC(=O)C(C)(C)NC(=O)C1=Cc2cc(NC(=O)C3=Cc4cc(ccc4OC3=O)N(=O)=O)ccc2OC1=O , P-1 ,1,1,1.45761079039,0.6805172413789999
10810, TAPSAH , OC12CCCC(=O)C1C(c1ccccc1N(=O)=O)C1=C(CCCC1=O)O2 , P-1 ,1,1,1.47325795831,0.721412733608
10812, PAYBAV , CCN1c2ccccc2N2C(=O)C(=CN=C12)N(=O)=O , P21/c ,1,0,1.48910142044,0.7102110947470001
10813, UQIJUA , C1CC2ON=C3C2C(C1)Oc1ccccc31 , Pcab ,0,0,1.31518053366,0.671771257229
10814, SAHHUG , OC1=C(C(C=Cc2ccccc2N(=O)=O)C2=C(O)CCCC2=O)C(=O)CCC1 , P21/n ,0,0,1.37571139645,0.692022777666
10815, ZIGDOI01 , CC(=C)C(=O)OC1CC(C)(C)N([O])C(C)(C)C1 , P21 ,0,0,1.20808186184,0.6911449325489999
10816, DIPRAX , Cc1ccc(cc1)C1=NOC(C1C(=O)c1ccccc1)C1=NN(N=C1)c1ccccc1 , P212121 ,0,0,1.3007666821600001,0.671970921453
10817, GETBOW , CON=C1CC2(CC3CC(CC=C(C)CC(C)C=CC=C4COC5C(O)C(=CC(C(=O)O3)C45O)C)O2)OC(C1C)C(C)=CC(C)C , P212121 ,0,0,1.12250793126,0.610199670132
10819, XEPZID , COc1nc(Oc2ccc(cc2)N(=O)=O)nc(Oc2ccc(cc2)N(=O)=O)n1 , C2/c ,1,0,1.53700243542,0.697926716141
10820, NTSALA , OC(=O)c1cc(ccc1O)N=O , P21/n ,0,0,1.6520244312999999,0.7520008930069999
10821, PIXVUP , CC(=NO)C1=Cc2ccccc2O1 , P21/c ,1,0,1.37806171485,0.703475916076
10822, WICVUZ , CC(=O)OC1CCC2(C)OC(=C(C3C2CCC2(C)C(CCC32)OC(C)=O)N(=O)=O)C1 , P1 ,0,1,1.28115592376,0.662488260461
10823, QOVSUQ , CCCCCCCCNc1cc(NCCCCCCCC)c(cc1N(=O)=O)N(=O)=O , P-1 ,1,1,1.2326417102399998,0.694904251866
10824, OPILOP , CC1=C(C)N(O)C(=N1)C(=O)c1ccccc1 , P-1 ,1,1,1.30605404716,0.6803332372740001
10825, SAQVIS , CN(C)c1ccc(cc1)C1=Nc2cc(ccc2O1)N(=O)=O , P-1 ,1,1,1.4249362052599999,0.713566364088
10827, GISQUW , Oc1ccc(cc1)C(=C)c1ccc(cc1)N(=O)=O , P21/n ,0,0,1.37847399964,0.7088084265960001
10828, QEGYUZ , CC1=NOC(=O)C1=CC1=CN(N=C1c1cccc(O)c1)c1ccccc1 , P21 ,0,0,1.3898661034399997,0.6980331390539999
10829, KOHCEQ , O=C1N(CON(c2ccccc2)C1=Nc1ccccc1)c1ccccn1 , P-1 ,1,1,1.32032665544,0.663438098732
10830, PUDQOU , CON1C2(C)CCCC1(C)OO2 , C2/c ,1,1,1.2519502258,0.6736713130580001
10832, WAMTIO , O=C1C=CN(OCc2ccccc2)C2=NCCN12 , P21/c ,1,1,1.35640404465,0.695934055756
10833, LUJMIO , O=N(=O)C1=Nc2ccccc2N1 , Fdd2 ,0,0,1.5927701002,0.7430651458580001
10834, SEZXEC , COCCOCCOCCOc1cc(NC(=O)c2ccc(c(OCc3ccccc3)c2)N(=O)=O)c(OCc2ccc3ccccc3c2)cc1C(=O)Nc1ccc(cc1OC(C)C)C(=O)OC , P212121 ,0,0,1.31311349104,0.6774879763230001
10835, UCUCIG , O=N(=O)c1ccc(NN=C2CCC(CC2)OCc2ccccc2)c(c1)N(=O)=O , P-1 ,1,1,1.4757875628400001,0.740404040404
10838, CURFIF , O=C1CCCC21COC(C2)c1ccc(cc1)N(=O)=O , P212121 ,0,0,1.35658791443,0.6922201138519999
10839, KUSHOW , CCOC(=O)C1=CC2=C(C3=NOC(=C3)CN(CC)CC)C(=NN2C=C1)c1ccccc1 , P-1 ,1,1,1.27436337938,0.673665122473
10840, NAMRUP , COC(=O)C(=CN(C)C)c1ccccc1OC(=CN(C)C)C1=NC(=NO1)c1cccnc1 , P21/c ,1,0,1.32458417545,0.6904340248499999
10841, KOMHAV01 , O=N(=O)C1=CNC=N1 , P21/n ,0,1,1.71176239693,0.750393822394
10842, CIFREO , CC1=CC(c2ccc(cc2)N(=O)=O)C(C)(CC1)C=Cc1ccc(cc1)N(=O)=O , C2/c ,1,0,1.28967270855,0.6777899116220001
10843, VAZJOY , OC(=O)C1(CC1)C(=O)OC1(Cc2ccccc2)C(=O)ON=C1c1ccccc1 , P21/n ,0,0,1.37613321056,0.686814236111
10844, LOLJAX , O=C(N1CC(C1)(N(=O)=O)N(=O)=O)C(=O)N1CC(C1)(N(=O)=O)N(=O)=O , Fdd2 ,0,1,1.7386841777700002,0.7276354597779999
10845, KIMQEF , O=N(=O)c1ccc(Nc2cccc3cccnc23)nc1 , P-1 ,1,1,1.43783601756,0.69584548105
10846, LOJWIR , O=C(C1CC(OC1c1ccc(cc1)N(=O)=O)c1ccccc1)c1ccccc1 , P21/c ,1,0,1.3342467530500002,0.717780958223
10847, IROYIZ , O=C1Oc2ccccc2C2=C1C(C(C(O2)=Cc1ccccc1)N(=O)=O)c1ccccc1 , P212121 ,0,0,1.3840260084799998,0.686276379354
10848, VURTEJ , CC(C)C1ON=C2C1CCC12CCC2C(ON=C12)C(C)C , P21/n ,0,1,1.1820871827200001,0.664455782313
10849, VIMRUE , COc1cc(ccc1O)C=NO , P21/c ,1,0,1.38605734085,0.640742481203
10850, CEMJUC , CC(C)(C)OC1CC(C2CC12)N(O)C(=O)OC(C)(C)C , C2/c ,1,0,1.18731212466,0.6770520202320001
10851, DUWWIB , CC1(CCCN2c3ccccc3c3ccccc23)c2cc(ccc2c2ccc(cc12)N(=O)=O)N(=O)=O , P21/n ,0,0,1.3363293781799999,0.676051084214
10852, ADOKAF , ON=C1CCCC=C1c1ccccc1 , P-1 ,1,1,1.22673767935,0.6735294117649999
10853, BAQCED , CC(C)c1ccc(cc1)C1=C2N(Cc3ccccc3)c3ccccc3N2C(=C1C#N)c1ccc(cc1)N(=O)=O , P-1 ,1,1,1.29398562743,0.680053285485
10855, QIKFEV , Nc1ccc(cc1)N=[N+]([O-])c1ccccc1 , P21/n ,0,0,1.32972833009,0.6895830176559999
10856, FELBOP , C=C(C1=CCON(C1)c1ccccc1)C(=C)C(=C)C(=C)C1=CCON(C1)c1ccccc1 , P21/c ,1,0,1.22406152567,0.685139318885
10857, AQOZUD01 , [O-][n+]1ccccc1c1ccccc1 , P21/c ,1,0,1.33078339604,0.709798224374
10859, LOMXUH , CC1(C)CC(CC(C)(C)N1[O])N1C(=O)c2ccc3C(=O)N(C4CC(C)(C)N([O])C(C)(C)C4)C(=O)c4ccc(C1=O)c2c34 , P21/c ,1,0,1.32162730002,0.678939393939
10860, NEMLIA , COc1cc(ccc1O)C=NNc1ccc(cc1)N(=O)=O , P21/n ,0,0,1.44283959854,0.707482993197
10861, NAWKUT , CC1=C(OC(=O)c2ccccc2)C(Nc2ccccc2)ON(C1)c1ccccc1 , C2/c ,1,1,1.2253609928,0.6442937116790001
10862, EHAQIP , CN1C(=O)C2CC3C(C(C(C=C3CC2C1=O)N1CCOCC1)N(=O)=O)c1ccccc1 , Pbca ,1,0,1.32471777876,0.6805629629629999
10863, IQUVUN , CONC1CCCC2(C)C1N(C)C(=O)N(C)C2=O , Pbca ,1,0,1.27376170573,0.6814695532889999
10864, RAQROR , O=N(=O)C12C3CC(C=C3)C1C1=[N+]([O-])ON=C1C1=[N+]([O-])ON=C21 , P-1 ,1,1,1.68047694444,0.711295790564
10865, MEGQAQ , CC1=NOC(=C1c1ccccc1)c1ccncc1 , Pbca ,1,0,1.30688995407,0.696160963278
10866, HAXJOH , OC(=O)c1ccc(NC(=O)c2ccc(NC(=O)c3ccc(NC(=O)c4ccc(cc4)N(=O)=O)cc3)cc2)cc1 , C2/c ,1,1,1.5306626192700001,0.769203452797
10867, HIWRIO , CCOC(OCC)C(C(O)C1CCOC(O1)c1ccccc1)N(=O)=O , P21 ,0,0,1.26781620305,0.6579749103939999
10868, OFENAR , O=N(=O)C1=NN2C(=N1)C=CC=C2c1ccc(cc1)[CH2]1[CH2]2COCCN12 , C2/c ,1,0,1.4004546216100002,0.7790683049539999
10869, IGADIE , CCC(=O)Nc1ccc(Oc2ccc(cc2)N(=O)=O)cc1 , P21/n ,0,1,1.39386798275,0.7073799725650001
10870, MINWAI , CC1(C)C(CCC2(C)C1CC2=O)OC(=O)c1cc(cc(c1)N(=O)=O)N(=O)=O , P-1 ,1,1,1.3792360963299999,0.685484947731
10871, SECCIP , O=C(COC(=O)c1ccccc1N(=O)=O)C1=Cc2ccccc2O1 , Pna21 ,0,0,1.4770574137,0.708785894956
10873, DNBZPY01 , O=N(=O)c1ccc(Cc2ccccn2)c(c1)N(=O)=O , P21/c ,1,0,1.49089407361,0.7177105660079999
10875, TECXAD , CC1(C)N([O])C(=[N+]([O-])C1(C)C)c1ccc(cc1)c1ccc(cc1)c1ccc(cc1)C1=[N+]([O-])C(C)(C)C(C)(C)N1[O] , P21/n ,0,0,1.31421368794,0.7054641909810001
10877, AGERUZ , CN1C(=O)C2(OC(=NC2c2ccc(cc2)N(=O)=O)c2ccccc2)c2ccccc12 , Pbca ,1,0,1.34850749881,0.670469932298
10878, IWOPAM , COC(=O)c1ccc(NC(=O)c2ccc(c(OC(C)C)c2)N(=O)=O)c(OC(C)C)c1 , P21/c ,1,0,1.3708306805700001,0.7017902389
10879, VAGCOW , CCOC(=O)C1=C(C)OC(=C(C1c1cccc(c1)N(=O)=O)C(=O)OC)C , P21/n ,0,0,1.40487217416,0.7055694504860001
10880, HODTEA , Oc1cccc(C=NOCCCCCON=Cc2cccc(O)c2O)c1O , C2/c ,1,1,1.34288909451,0.6825650874950001
10881, GALKOW , CCC(=NO)C(CC)=NO , Pbca ,1,1,1.22914602375,0.6852888672509999
10882, JAGNUD01 , COc1ccc(NC(CC(O)c2ccc(cc2)N(=O)=O)c2ccccc2)c(c1)N(=O)=O , P212121 ,0,0,1.38827551427,0.695457660676
10883, APUYIT , CC(C)(C)N([O])c1ccc(cc1)C1(c2ccc(cc2)N([O])C(C)(C)C)c2ccccc2c2ccccc12 , Pbca ,1,0,1.15480305608,0.649698528194
10884, SALHXA , ONC(=O)c1ccccc1O , C2/c ,1,0,1.4855399900200001,0.713485394158
10885, QALCOV , CC1(C)N([O])C(=N([O])C1(C)C)c1ccccc1CO , P21/n ,0,0,1.24853293888,0.671580644449
10886, TIJGIE , CCCCCC1OC2=C(C(O)C1(C)O)C(=O)N(OC)C2=C , P21 ,0,0,1.18301745707,0.618037749288
10887, JUXMOG , CC(C)(C)N1OC(=O)C=C1c1ccccc1 , P-1 ,1,1,1.26650322574,0.697924055422
10888, ISOBIC , ON1C(CN(CC1c1ccccc1)c1ccccc1)c1ccccc1 , R-3 ,1,0,1.1847354124299998,0.642079209138
10889, QEZLOY , CC(C)CC(NC(=O)OC(C)(C)C)C=CCC(=O)NC1C2CC3CC1CC(C)(C2)N3[O] , P212121 ,0,0,1.1322363528200001,0.6300804192639999
10890, SUYXOA , COc1cccc(C=CN(=O)=O)c1OC , P21/c ,1,0,1.34852150921,0.6855785524089999
10891, AXUKOU , O=N(=O)c1ccc(CC23CCCCC2=Nc2ccccc32)cc1 , P21/c ,1,1,1.30959414342,0.6899350649349999
10892, CIPNUL , CC1(C)OC2OC3(COCC4CC3N(Cc3ccccc3)O4)C(OCc3ccccc3)C2O1 , P212121 ,0,0,1.34508607794,0.699696854869
10893, SERXIX , COC(=O)c1cc(N(Cc2ccc(OC)cc2OC)C(=O)c2cc(c(OCC(C)C)cc2OCC(C)C)N(=O)=O)c(OC)cc1OC , P-1 ,1,1,1.27490005142,0.657667674791
10894, GINRED , CC(=O)OCC1=[N+]([O-])CC(OC(C)=O)C(OC(C)=O)C1OC(C)=O , P21 ,0,0,1.39510875375,0.682512549179
10895, OGENEU , O=C(Nc1cccc2cccnc12)c1ccccc1N(=O)=O , P21/c ,1,0,1.4968148120200002,0.7388625948459999
10896, YABBIM , COC(=O)C1C(ON=C1c1ccccc1)C1N(C)C(C(N1C)c1ccccc1)c1ccccc1 , P21/n ,0,0,1.2170084927399998,0.653158507739
10897, WEHKUQ , CCOC(=O)C1=NNC(=C1C(=O)OCC)C1N(O)C(C)(C)C(C)(C)N1O , P212121 ,0,0,1.28261793528,0.665230342806
10898, RAFVID , CC1OCC2CON(C3CCCCC3O)C12 , P212121 ,0,0,1.25201911811,0.686889657824
10899, KUKFIG , ON1C2CCCC31CCCC3CO2 , P21/n ,0,0,1.2916190998700001,0.700208706023
10900, QABCIH , COC(=O)CN([O])=Cc1cccc2ccccc12 , P212121 ,0,0,1.33345108847,0.688559322034
10901, APYRCX , ON=Cc1ccncc1 , P21/n ,0,0,1.35714359364,0.6994450666940001
10902, NANILI30 , Nc1ccc(cc1)N(=O)=O , P21/n ,0,0,1.4480691351100001,0.7098710161409999
10903, HALLUB , COc1cc2CCN3OC3(C(OC(C)=O)C(OC(C)=O)C(COC(C)=O)OC(C)=O)c2cc1OC , P212121 ,0,0,1.37614080505,0.657337220603
10904, ELUMUV , O=N(=O)c1ccccc1N=NC1(CCCc2cc3CCCCc3nc12)C#N , P21/c ,1,1,1.3131089735400001,0.673156682028
10905, XIRJEP02 , O=N(=O)c1ccc(cc1)C(=Cc1ccc(cc1)N(c1ccccc1)c1ccccc1)C#N , P21/c ,1,0,1.3258556996700002,0.693892469268
10906, INIMID , COc1cc(COC(=O)C2=NOC(=C2)N)cc(OC)c1OC , P21/c ,1,0,1.3830242525,0.684571428571
10907, CILBII , COC1OC(CON(=O)=O)C(ON(=O)=O)C(ON(=O)=O)C1ON(=O)=O , P212121 ,0,0,1.67152806957,0.6908465309199999
10909, NEJDAJ , CC(C)(C)OC(=O)N1CC(CCOC(=O)c2ccc(cc2)N(=O)=O)C(C)(O)C21COC(C)(C)OC2 , P-1 ,1,1,1.28646492938,0.662990196078
10910, SONDOO , CON=C1NC(=O)N(C=C1)C1CC(OC(C)=O)C(COC(C)=O)O1 , P212121 ,0,0,1.35108908954,0.679502166309
10911, XICFUL , O=C1c2ccccc2C(=O)C21C(C(C1CCCN21)N(=O)=O)c1cccc(c1)N(=O)=O , Pbcn ,1,0,1.42244622204,0.681872477872
10912, WEJFUP , CC1(C)N=C(N([O])C1(C)C)c1ccc(cc1)c1ccc(cc1)C1=NC(C)(C)C(C)(C)N1[O] , P21/n ,0,0,1.2179651470100001,0.70551992792
10913, PUQQOI , CC1(C)CC(=O)C(=NNc2cccc(c2)N(=O)=O)C(=O)C1 , P-1 ,1,1,1.40286963899,0.7025430853300001
10914, LUKBEY , CC(=O)ON1N=NN=C1C1=C([O-])ON=[N+]1c1ccccc1 , Pbca ,1,0,1.52345209905,0.660813111963
10915, BAQJIM , CC1=CC(C(C(O1)c1ccccc1N(=O)=O)N(=O)=O)c1ccccc1 , P21/c ,1,0,1.35318329213,0.678786743721
10916, VEWXIH , O=C(Nc1ccc(cc1)N(=O)=O)OCCCC1CCC(CCO1)OCc1ccccc1 , P21/n ,0,0,2.20640122494,0.767916755451
10917, HUSSAQ , CON(C)C(=O)C1OC(C)(C)OC1CC=C , P212121 ,0,0,1.4403054392299999,0.708011479208
10918, ANOXUX , OC(C(=O)NC1CCCCC1)c1ccccc1N(=O)=O , P212121 ,0,0,1.30197495386,0.6798384322600001
10919, SEKFOE , CC1(C)CC(C)(C)N([O])C(=N1)c1ccc(cc1)N(=O)=O , P21/n ,0,1,1.29710839021,0.6855913978489999
10921, OBUWUF01 , Oc1ccc2ccccc2c1C=NNC(=O)c1ccc(cc1)N(=O)=O , P21/c ,1,0,1.4885893667399999,0.72718984719
10922, QAXJOO , COC(=O)C1=C(C)NC(=O)C(C1c1ccc(cc1)N(=O)=O)C(N)=O , P-1 ,1,1,1.43419005562,0.686527564576
10923, QIZMAN , COc1ccccc1NC(=O)c1cc(c(OC)cc1OC)N(=O)=O , P-1 ,1,0,1.6063769775299999,0.723604201216
10925, VIGPIN , CC1(COC2OC(C#N)C(CN(=O)=O)C2C1)N(=O)=O , P212121 ,0,0,1.52722103615,0.7254847425300001
10926, KOWZEB , COC(=O)c1cc(cc(c1c1c(cc(cc1N(=O)=O)N(=O)=O)C(=O)OC)N(=O)=O)N(=O)=O , Pbca ,1,0,1.59879823134,0.664693037709
10927, XAZKUH , O=C(C1CN(Cc2ccccc2)OC21N(Cc1ccccc1)C(=O)c1ccccc21)N1CCOCC1 , Pbca ,1,0,1.3142413811,0.684808485107
10928, YEJLOO , O=N(=O)c1ccccc1Nc1ccccc1 , Pca21 ,0,0,1.4027883366,0.7183983291249999
10929, MIPTIP , [O]N1=C2C=CC=CC2=C(C#N)N1CC1=CC=CO1 , P212121 ,0,0,1.34872104935,0.6681791877100001
10930, DUHJAT , COc1ccc(cc1)C1=CC(C#N)(C(C1N(=O)=O)c1ccccc1)C(N)=O , C2/c ,1,0,1.35582771438,0.686745127577
10931, FUYHUC , COc1ccc2CC(OC(=O)c3cc(cc(c3)N(=O)=O)N(=O)=O)c2c1OC , P21/n ,0,0,1.4770667792299998,0.7075165139569999
10932, NOHQOR , CC(C)c1cccc(C(C)C)c1NCc1cccc[n+]1[O-] , Pbcn ,1,1,1.17263232739,0.6762053761910001
10933, UCOPAD , COC(=O)C1C(C2N(N=O)C1c1ccccc21)C(=O)OC , P21/a ,0,0,1.41107825259,0.694834400981
10934, PIRYUM , COc1ccc2NC3(OC4=C(C(c2c1)C3(C)C)C(=O)Oc1ccccc41)c1ccccc1N(=O)=O , P21/n ,0,0,1.3981495619600002,0.688734275072
10936, HUMMAE , COc1c(cc(cc1N(=O)=O)C1=COc2c(cc(c(O)c2N(=O)=O)N(=O)=O)C1=O)N(=O)=O , P21/c ,1,0,1.69072664052,0.750529100529
10937, PUBLON , CC(=O)N1C2C3N(N=O)C4C(N2N=O)N(C(C1N3C(C)=O)N4C(C)=O)C(C)=O , P21/n ,0,0,1.4898426363100001,0.709082251082
10939, NTPYRO12 , [O]n1ccc(cc1)N(=O)=O , Pnma ,1,1,1.6367883132799999,0.7516402116399999
10940, GAPLIU , Cc1ccc(cc1)C1ON(C2c3ccccc3OCC12C#N)c1ccccc1 , P212121 ,0,0,1.2523768205299999,0.6507787787789999
10942, VIPYAV , [O]n1cccc(c1c1ncccc1N(=O)=O)N(=O)=O , P21/a ,0,0,1.61459439613,0.716995108316
10943, XERZUS , CC(C)OC(=O)C(O)(CN(=O)=O)C=Cc1ccccc1 , P21 ,0,0,1.2539463893,0.642013888889
10944, RIDBUC , CC1(C)C2(C)CCC1(OC2=O)C(=O)OC1c2cccc(OCc3ccccc3)c2C2=NOC3=C2C1(O)CCC3 , P212121 ,0,0,1.3610682300299999,0.692334054834
10945, NOHSAF , CC(C)c1cccc(C(C)C)c1N=C(C)c1cccc(n1)c1cccc([n+]1[O-])C(C)=Nc1c(cccc1C(C)C)C(C)C , P21/n ,0,1,1.1205382480700001,0.641074124961
10946, KAXMOM01 , CC(C)(C)c1cc2Cc3cc(cc(Cc4cc(cc(Cc5cc(cc(Cc(c1)c2OCC#N)c5OCC=C)N(=O)=O)c4OCC#N)C(C)(C)C)c3OCC=C)N(=O)=O , P-1 ,1,0,1.21891063975,0.653324827482
10947, LAGVAT , COc1c2OCOc2c(OC)c(c1N(=O)=O)N(=O)=O , P61 ,0,0,1.64828745051,0.7245627271549999
10949, GEZGAT , CC(C)C1(C=C(N(=O)=O)C(C)(C(ON(=O)=O)C1N(=O)=O)N(=O)=O)N(=O)=O , P21/c ,1,0,1.6442223552200002,0.675402498015
10950, PINBAS , COC(=O)C12CC(N(O1)C(C)(C)C)c1ccc(cc1C2)N(=O)=O , P-1 ,1,0,1.33155542768,0.7199518916519999