ID,name,smiles,space_group,inversion_symmetry,beta_packing,density,packing_coefficient
9354, ISABEJ , CC1(C)N([O])C(=N([O])C1(C)C)C1=Cc2cnccc2N1 , P21/a ,0,0,1.26745195066,0.658111455108
9355, CAGHAU , [O-][N+]1=NN(c2ccc3ccccc3n2)c2ccccc12 , C2/c ,1,0,1.42613274992,0.70446969697
9357, MNPYDO21 , Cc1cn([O])ccc1N(=O)=O , P212121 ,0,0,1.5481657062099998,0.7339646050849999
9358, HAHBIE , COc1ccc(cc1)C1C(C)C(Nc2cc(ccc12)N(=O)=O)c1ccccc1 , P21/c ,1,0,1.30337740695,0.682957157936
9359, DZHPDO , [O]N1=N([O])C2CCC1C2 , P21/c ,1,0,1.42663578966,0.7046211280399999
9360, EVIHAT , Cc1ccc(cc1)C1C(=NOC21CC(c1ccccc1C2=O)C(C)(C)C)c1ccc(C)cc1 , P21/c ,1,0,1.2115226507799999,0.683511499838
9363, WASTUF , CN1OC2CC(O)CC31CCC1C(CCC4(C)C(O)CCC14)C23 , P212121 ,0,0,1.2148918498399999,0.5723434704829999
9366, FENDEH , O=C1N2CCCCCN2c2ccc(cc12)N(=O)=O , P21/c ,1,0,1.41586337317,0.708373153918
9367, GEFYEX , COCC1OC(C(OC)C1OC)N1C=C(C(=O)N(C)C1=O)N(=O)=O , P212121 ,0,0,1.49898600288,0.7305499915289999
9368, IBOVIE , O=N(=O)c1ccc(NC2CCCCC2Nc2ccc(cc2)N(=O)=O)cc1 , P212121 ,0,0,1.31941962457,0.663626618643
9369, WINPOY , [O]n1c2ccccc2cc2CCc3cccc(O)c3c12 , P21/a ,0,0,1.39888613398,0.708142758143
9370, VECGIV , O=N(=O)C1=NNC(=N1)C1=NC(=NN1)N(=O)=O , P21/n ,0,0,1.90237494072,0.7473290598289999
9371, PISXHZ , O=C1ONC(=C1NN=C1C(=O)ON=C1c1ccccc1)c1ccccc1 , C2/c ,1,1,1.4804393930500002,0.706402667211
9372, MEJNAS , COC(=O)C(C(CN(=O)=O)c1ccc(C)cc1)C1=NOc2ccccc12 , P21 ,0,0,1.35451189694,0.690331419975
9373, DORKOL , O=C(Nc1cc(cc(c1)N(=O)=O)N(=O)=O)C1CCCN1 , P41212 ,0,0,1.5316847128100002,0.721788106189
9374, XUJQIC , CC1(C)OC2C(O)C3CONC3C2O1 , P21212 ,0,0,1.33931454732,0.670420368447
9375, OTOGOU , CN1CC2(C(C1=O)C(=NO)c1ccccc1)C(=O)N(Cc1ccccc1)c1ccccc21 , P-1 ,1,1,1.2993235620999999,0.667303178581
9376, WUFMEP , CC(C(O)c1ccccc1)N(N=O)C1CC2CCC1(C)C2(C)C , P212121 ,0,0,1.13756533521,0.641473559121
9378, WOGVIY , COc1ccc(cc1OC)N=Cc1ccc(cc1)N(=O)=O , P21/c ,1,0,1.36967187191,0.688395638629
9379, VIRHAF , C[N+]1=C(c2ccccc2)C(=CC(C)=[N+]([O-])[O-])c2ccccc12 , C2/c ,1,1,1.2709953866500001,0.673201118739
9380, AJAPUY , O=N(=O)c1cc2c3ccccc3N(Cc3ccccc3)c2c2ccccc12 , P21 ,0,0,1.3446682331600002,0.69012753897
9382, ZEXJOD , ON1N=NN=C1N=NC1=NN=NN1O , P21/n ,0,0,1.90152695948,0.7428154935439999
9383, ELAROA , CC(=O)NOCCc1ccccc1 , P21/c ,1,0,1.21331788074,0.667732651103
9384, DUCVUT , CC1=NN(C(C1)C1=CC=CO1)c1cccc(c1)N(=O)=O , P-1 ,1,1,1.36232248897,0.671918402778
9385, DAPPAO , CN(CN(C1=NON=C1N(=O)=O)N(=O)=O)N(=O)=O , P21/c ,1,0,1.7756730695700003,0.722825037649
9386, BOHLIT , O=N(=O)c1ccccc1N=[N+]([O-])c1ccccc1[N+]([O-])=Nc1ccccc1N(=O)=O , P21 ,0,0,1.4505448680000002,0.684492630969
9387, AJERUE , Cc1ccncc1C1=N([O])C2(CCCC2)C2(CCCC2)N1[O] , P21/n ,0,0,1.2512812848000001,0.679292276604
9388, DIPGEQ , CC1=CC(=C(N1)C=C(C(=O)OCC=C)c1ccccc1N(=O)=O)C , P-1 ,1,1,1.2737477653799998,0.66616087401
9389, SEMYIT01 , COC(=O)C(C#N)=C(OC)c1ccccc1N(=O)=O , P21/c ,1,0,1.4363430638699999,0.70432848503
9390, WINRAM , COc1cccc2C(=O)c3cc4ccccc4n([O])c3c12 , Pbca ,1,0,1.43230830789,0.704552261156
9391, KUZQUT , COC1=CC2=NOC(=O)C2(C=C1OC)C(C)C , Pbcn ,1,0,1.34608949014,0.7048559503210001
9392, BAGVIP , CCOC1ON=C(C(C(O)c2ccccc2)C1c1ccccc1)c1ccccc1 , P-1 ,1,1,1.22858684551,0.660616438356
9393, EVIKUQ , O=NN1C(C2C(NC(C(C1c1ccccc1)C2=O)c1ccccc1)c1ccccc1)c1ccccc1 , P21/c ,1,0,1.24435717225,0.6580673758869999
9395, GUJKOL , COC(OC)C1OCCC1(O)C1=NOC(=N1)c1ccccc1 , P21 ,0,0,1.32845997994,0.697236988142
9396, REHLAR , CCOC(=O)C(CCCCCCOc1ccc(cc1)N=Nc1ccc(cc1)N(=O)=O)C(=O)OCC , P-1 ,1,1,1.27364269194,0.690826023392
9397, BATXAX , CN1N=C(N=C1N=[N+]=[N-])N(=O)=O , P21/m ,0,1,1.6542363239500002,0.7052491694349999
9399, OKIPUT , C1CC2CON=C2C2(C1)CCCC1CON=C21 , Pbca ,1,0,1.34530226919,0.7182197591680001
9400, EYOVET , COC1=CC2=NON=C2C2=NON=C12 , P21/n ,0,0,1.58733677396,0.68891684137
9401, UGOCAV , CCOC(=O)C1C2CCCC2C(=O)NC1c1ccccc1N(=O)=O , P-1 ,1,0,1.30646247857,0.663870035194
9402, TAPPOQ , Cc1ccc(Oc2ccc(cc2)N(=O)=O)cc1 , P21/c ,1,0,1.37735043648,0.7103971441320001
9403, ITIKAY , CCOC(=O)C(=NNc1ccc(cc1O)N(=O)=O)C(C)=O , Pna21 ,0,0,1.44662957709,0.693722943723
9404, LAFWOF , COC(=O)C1=CON2CCC34C=CC(O)CC3Oc3c(OC)ccc(C12)c43 , P21 ,0,0,1.3510190313100001,0.6714302497310001
9405, YOHHUA , CCOc1ccc2ccc(OCC)c(C(=O)c3ccc(cc3)N(=O)=O)c2c1C(=O)c1ccc(cc1)N(=O)=O , C2/c ,1,1,1.3779818696200001,0.684303229365
9406, OCATEU , COC(=O)C1CC(O)C2OC(C)(C)OC2C1CN(=O)=O , P212121 ,0,0,1.42140388003,0.709727772228
9407, NUTRUP , COC(OC)C1(C)Oc2ccc(cc2C(NC(C)=O)C1O)N(=O)=O , P212121 ,0,0,1.39342282163,0.6867077516210001
9408, KUFLUU02 , COc1cccc(C=Nc2cccc(c2)N(=O)=O)c1O , Pbca ,1,0,1.4560709739700002,0.724087572621
9409, NOGGUL , COc1cc(C=Cc2ccc(c(OC)c2)N(=O)=O)cc(OC)c1OC , P21/n ,0,0,1.3573664823700002,0.696526151444
9410, UQIDUV , Cc1ccc(cc1)C1=NOC23C4N(CCc5ccccc45)C(=O)C12C1c2ccccc2C3c2ccccc12 , P212121 ,0,0,1.3265708238299998,0.681535220714
9413, IKEGUC , COC(=O)c1ccc(OCC(=NO)c2ccc3c(c2)C(C)(C)CCC3(C)C)cc1 , P-1 ,1,1,1.27248679015,0.6910734463279999
9417, XAGYAF , ON=[N+]([O-])C1CCCC=C1N1CCOCC1 , P21/n ,0,0,1.3219650039,0.690682333539
9418, ABEPON , CCN1c2ccc(cc2c2cc(C)cc(c12)N(=O)=O)N(=O)=O , P-1 ,1,0,1.4423854060199999,0.709487666034
9419, ONITPH01 , Oc1ccccc1N(=O)=O , P21/c ,1,1,1.56296541781,0.746170343137
9420, NANILI28 , Nc1ccc(cc1)N(=O)=O , P21/n ,0,0,1.46581454076,0.719196192491
9421, JAVCEO01 , COc1ccc(C=Cc2ccc(cc2)N(=O)=O)cc1C , Aba2 ,0,0,1.2625310735,0.672002978407
9422, QACYAW , O=C1ON=C(c2ccccc2)C1=Cc1ccccc1 , P21/a ,0,0,1.39874531354,0.731579972726
9423, NEQVUC , O=N(=O)c1ccccc1C1=CC=C(O1)C=NN(c1ccccc1)c1ccccc1 , C2/c ,1,0,1.37454458195,0.7008255574500001
9424, KASQEA , CN1C(C(C(C1c1ccc(C)cc1)N(=O)=O)N(C)C(C)=O)c1ccc(C)cc1 , P-1 ,1,1,1.226020055,0.663656495737
9425, TNPHMR10 , O=N(=O)c1ccc(cc1)[C](c1ccc(cc1)N(=O)=O)c1ccc(cc1)N(=O)=O , Pbcn ,1,0,1.5061100769100002,0.728577812004
9426, PAZOXN13 , COc1ccc(cc1)N=N([O])c1ccc(OC)cc1 , P21/n ,0,0,1.33380781452,0.68823354117
9428, SEWQES , COc1ccc(cc1)N1C=C(C(C)C)C(C(C1CC(C)C)N(=O)=O)c1ccccc1 , P21/c ,1,0,1.1732548733600001,0.650572252664
9429, WASRAJ01 , NNc1ccc(cc1N(=O)=O)N(=O)=O , P21/c ,1,0,1.70478450389,0.760887162053
9430, NUQZIJ01 , Nc1ccc(cc1[NH+]=Cc1c([O-])ccc2ccccc12)N(=O)=O , P21/n ,0,0,1.4921805339200003,0.729172203029
9431, DAVWOP , CCC1=C(CC)C2=C(C3=NC(=C(C4=C(CC)C(=C(N4)C(=C4N=C(C=C1N2)C(=C4CC)CC)N(=O)=O)CC)N(=O)=O)C(=C3CC)CC)N(=O)=O , P212121 ,0,0,1.3442354978600002,0.709233102664
9432, HMTRAO10 , [O-][N+]12CN3CN(CN(C3)C1)C2 , R3m ,0,0,1.47748893582,0.7501531862749999
9433, ENIHEP , CCOC(=O)C1(CCC(=CC1OC(=O)c1cc(cc(c1)N(=O)=O)N(=O)=O)C)COCC#C , P21/n ,0,0,1.3221948107200001,0.673540643753
9434, DARWAX , O=C(c1ccccn1)c1ccc(cc1N(=O)=O)N(=O)=O , Cc ,0,0,1.5291434456,0.703418173573
9436, AKUFOD , O=C(OCc1ccc(cc1)N(=O)=O)C1=CC(=Cc2ccccc2N1)C(=O)OCc1ccc(cc1)N(=O)=O , P21 ,0,0,1.43345186157,0.704415034551
9437, EMEDUW , O=C1Oc2ccccc2C(=C1N(=O)=O)Nc1ccccc1 , P212121 ,0,0,1.4462496510499998,0.6894834834829999
9438, NTRPLA , CC1=CC(=C(Oc2c(cccc2N(=O)=O)N(=O)=O)C(=O)C(=C1)C)C , Pbca ,1,0,1.4435127593000001,0.692718667328
9440, COXVAN , CC(C)c1cccc(C(C)C)c1N=C(Nc1ccc(cn1)N(=O)=O)c1ccccc1 , P-1 ,1,1,1.22703341743,0.663945578231
9441, KAXHAS , CC1(C)N([O])C(=[N+]([O-])C1(C)C)c1ccc(cc1)N(=O)=O , Fdd2 ,0,0,1.41179946256,0.728878072377
9442, IYUGUG , COc1ccc(OCC2CC(=NO2)C2=C(Oc3ccccc3)N(C)N=C2C)cc1 , P21/c ,1,0,1.27417610714,0.6720120694730001
9443, CONNIC , CC1(O)CCC2C3CCC4C5=NON=C5CCC4(C)C3CCC12C , P32 ,0,0,1.20593356095,0.699422222222
9444, HODWAZ , O=N(=O)C1=NC=CN1CCOCCOCCN1C=CN=C1N(=O)=O , P21/c ,1,0,1.53218285633,0.733882783883
9445, NIDMUL , Cc1ccccc1N1C=CC(=C1)C1C2C(ON1c1ccccc1C)C(=O)N(C2=O)c1ccccc1 , Pbca ,1,0,1.31714307055,0.688877701705
9446, NEDDOP , Nc1ncnc2N(C=C(c12)N(=O)=O)C1CC(O)C(CO)O1 , P212121 ,0,0,1.5906899842,0.728572679072
9448, ENUPEK , CC1=NC(=C(N1CCc1ccccc1)c1ccccc1C=O)N(=O)=O , P21/c ,1,0,1.32785814143,0.688325950535
9449, OXEKEI , O=N(=O)c1ccccc1C1O[N+](=C2CCCC=C12)[O-] , P21/n ,0,0,1.45276107585,0.723561643836
9450, PIMKOL , O=N(=O)OC1COC2C(COC12)ON(=O)=O , P22121 ,0,0,1.69988109475,0.721901211556
9451, LASHAR , CN(C)c1ccc(cc1)N=C1c2ccccc2[N+](=C1C1=C(C)C=C(C)N1)[O-] , P21/n ,0,0,1.3428068468399998,0.7261386035899999
9452, YEDWEK , CN(C)C(=O)CCC#Cc1ccc(cc1CO)N(=O)=O , P21/c ,1,1,1.34460316492,0.7044197031039999
9453, CANHAB , CCOC(=O)C1=NOC(CC2=CNc3ccccc23)(C1)C(=O)OC1CC(C)CCC1C(C)C , P212121 ,0,0,1.16072691467,0.6172928537510001
9454, PILXAM , CN(C)c1ccc(cc1)C=NOCCON=Cc1ccccc1O , P21/n ,0,0,1.2583139657100002,0.665915334863
9455, WAKPII , CCOC(=O)C1=CC(=NO1)C1=NON=C1N1CCOCC1 , C2/c ,1,1,1.48415277756,0.71224738676
9456, AXAQOG , CC(C)(C)OC(=O)C1CCCCN1O , P21/n ,0,0,1.13283964689,0.633088544371
9460, JADNIM , CC1(C)NC(=[NH+]C1(C)C)c1cc(ccc1[O-])N(=O)=O , P21/n ,0,0,1.2882125214,0.664968060695
9461, UCIYEN , CN(CC(O)=O)N(=O)=O , P21/c ,1,0,1.61583513087,0.7323578595319999
9462, KAQPIE , CC(C)=CC1=C(Cc2ccccc12)C(c1ccccc1)C(C)(C)OC(=O)c1cc(cc(c1)N(=O)=O)N(=O)=O , P21/n ,0,0,1.1686490570899999,0.601798483207
9463, IQORUC , COC1CC(CN(=O)=O)(OC(C)=O)C2OC(OCC2O1)c1ccccc1 , P212121 ,0,0,1.36812678044,0.670163473553
9464, DIBGIF , CN(C(=O)c1c(C)cc(cc1C)N(=O)=O)c1c(C)cccc1C , P21/n ,0,0,1.29081541009,0.7011636377580001
9465, SAPXUC , CC(C)c1cccc(C(C)C)c1N([O])=N([O])c1c(cccc1C(C)C)C(C)C , P21/c ,1,0,1.11873674069,0.650816206287
9468, GOZFUY , CN1C(=O)c2ccccc2N=C1c1cc2OCOc2cc1N=O , C2/c ,1,0,1.5150618982600002,0.7169246815989999
9470, DNBENZ14 , O=N(=O)c1cccc(c1)N(=O)=O , Pna21 ,0,0,1.60302313956,0.721584811303
9471, MUKKUY , CC1(C)N([O])C(=[N+]([O-])C1(C)C)c1ccc(N)cc1 , Pbca ,1,0,1.21482960956,0.644953508909
9472, KIBSAS01 , NC1=NC(=NO1)C1=NON=C1N(=O)=O , P21/c ,1,0,1.7378198715000002,0.690446979921
9473, WOJHAG , CNC1=C(C(c2ccc(OC)cc2)C2=C(CC(C)(C)CC2=O)O1)N(=O)=O , P21/c ,1,0,1.31709287198,0.6779824124770001
9474, APACIF , CCOC(=O)C1(Cc2ccccc2N(C)C1c1ccccc1)N(=O)=O , P21/n ,0,0,1.3145325514,0.6778189131129999
9475, XOPCEL , COc1cccc2C(=O)C3(CC=C)CC(C)CC4=C3C(=NO4)c12 , P21/a ,0,0,1.2889388697,0.684636118598
9476, CDODOX , ON=C1CCCCCCCCCCC1 , P-1 ,1,1,1.1200294808700002,0.7059460821369999
9479, IVIDIB , COC(=O)C1=C(C)Oc2ccccc2C1CN(=O)=O , P21 ,0,0,1.36130745634,0.677206441357
9480, YEJFEA , CC(=O)Oc1ccc(C=CC(=O)OC2COC3C(COC23)ON(=O)=O)cc1OC(C)=O , P21 ,0,0,1.4750594269,0.689077212806
9481, LABMEG , None , Pna21 ,0,0,1.3704266871899997,0.696454171291
9483, BUKNAW , C1COCCOCC2=CC(=NO2)COCCOCCO1 , P-1 ,1,1,1.27702844837,0.646884999059
9484, NUGQIP , COc1c(OC)c(N([O])C(C)(C)C)c(OC)c(OC)c1N([O])C(C)(C)C , P-1 ,1,1,1.21696005106,0.663997456059
9485, TUXQAG , COc1cccc(OC)c1C=NOC1COC2(C1)CC(C2)(c1ccccc1)c1ccccc1 , P21/c ,1,0,1.26855849637,0.706130632057
9486, ROFMAC , COc1cc(ccc1O)C=NNC(=O)C1=C(C)N(N=N1)c1ccc(cc1)N(=O)=O , P21/c ,1,0,1.53986918338,0.7442313162199999
9487, UTIZUU , C1CCC(=CC1)C1=CC(=NO1)c1ccccc1 , P21/c ,1,1,1.27519564532,0.701905283186
9488, GASYOP , O=C(NC1CCCC2OC12)c1ccc(cc1)N(=O)=O , P-1 ,1,0,1.75969348384,0.71368914956
9490, HIHZUT , O=C1Nc2cc(c(cc2NC1=O)N(=O)=O)N(=O)=O , P21/c ,1,0,1.85519451567,0.7758462317679999
9491, VOCHUR , O=C1NC(N=C(N1)C(=[N+]([O-])[O-])N(=O)=O)=[N+]1CCCCC1 , P21/n ,0,0,1.56036385618,0.702524566109
9492, NHPYOX10 , CC1CC2CCCCN2C(O1)c1ccc(cc1)N(=O)=O , C2 ,0,0,1.25592658704,0.665147400599
9493, CELQEQ , O=C(C1C2CCCCN2OC1c1ccccc1)N1CCCCC1 , P-1 ,1,1,1.2352076427399998,0.68541813277
9494, CUBNES01 , O=C1c2ccccc2c2ccc(cc12)N(=O)=O , P21 ,0,0,1.50192078534,0.730678733032
9495, PBZQOX , CCCOC1=CC(=O)C(C=C1)=NO , P21/c ,1,1,1.36604892688,0.713127226199
9496, EGUQOM , OC(C1CC2CCN2C1=O)c1ccc(cc1)N(=O)=O , P21 ,0,0,1.3854603413,0.689052926135
9497, RUWTAF , CC(C)C1(ON=C2C1CCC12CCC2C1=NOC2(C(C)C)C(C)C)C(C)C , Pccn ,1,1,1.12873632088,0.652922077922
9499, NANILI27 , Nc1ccc(cc1)N(=O)=O , P21/n ,0,0,1.47185812623,0.722246135304
9500, SEMSAF , O=N(=O)c1ccccc1Nc1cnccn1 , C2/c ,1,0,1.5196621753400001,0.7330249451749999
9502, RIHHOF , O=C(Nc1ccccc1N=Cc1ccccc1N(=O)=O)c1ccccc1 , P212121 ,0,0,1.37804841689,0.702387077805
9504, IGIYUS , O1N=C(OC1=Nc1ccccc1)c1ccccc1 , P21/n ,0,0,1.35381492535,0.687875966535
9505, CEJHUU , CC1C(=O)C2(CCC3=C(O2)C(C)C(C)(C)N([O])C3(C)C)C(C)(C)N([O])C1(C)C , P1121/b ,0,1,1.20841700558,0.6755497968899999
9506, OLOBIA , NC(NN(=O)=O)=NN(=O)=O , P212121 ,0,0,1.88417085188,0.754433397291
9507, RELJAU , CC(=O)OC1COC2(CC(=NO2)c2ccccc2)C(OC(C)=O)C1OC(C)=O , P21 ,0,0,1.37821185557,0.686781419321
9508, CACXIQ , COc1ccc(cc1)C1C(COC2=C1C(=NN2c1ccccc1)C)N(=O)=O , P212121 ,0,0,1.3286378480299998,0.670668902837
9509, KALQEU , COCOC(C)C(=O)N(c1ccc(cc1)N(=O)=O)c1ccccc1C(C)(C)C , P212121 ,0,0,1.27258960925,0.682658914729
9511, VINYOH , COc1ccc2N(C)C3(NC4=C(C(c2c1)C3(C)C)C(=O)Oc1ccccc41)c1ccc(cc1)N(=O)=O , P-1 ,1,1,1.37934994343,0.686774661509
9512, TOVMAU , O=CC12CCCCC1(COC(=O)c1ccc(cc1)N(=O)=O)C=CC2 , P-1 ,1,0,1.3784184746700001,0.7794198139030001
9513, UDEWAB , NC1=Nc2ccccc2N=[N+]1[O-] , P21/n ,0,0,1.5007844245299997,0.712970540098
9514, ZITHER , CC12CC3CC(CC(C3)NO1)C2 , P212121 ,0,0,1.21101953576,0.688014599779
9515, EPAHOU , CCCCCCCCCCOc1ccc(cc1)C1=NOC(=N1)c1cc(cc(c1)C1=NC(=NO1)c1ccc(OCCCCCCCCCC)cc1)C1=NC(=NO1)c1ccc(OCCCCCCCCCC)cc1 , P-1 ,1,1,1.1490654656000001,0.639270152505
9516, LEZNUZ , CC1=NOC(=O)C1=NNc1ccc(cc1)N(=O)=O , P21/c ,1,0,1.45331047081,0.668850902184
9518, RULFIN01 , CC(C)(C(CC(=O)c1ccccc1)c1ccccc1)N(=O)=O , P212121 ,0,1,1.25471683693,0.6782509430220001
9519, DEXJAU , O=C1Cc2cc(ccc2N1)N(=O)=O , P21/n ,0,0,1.53743477164,0.7165167254829999
9520, DEPVUP , O=N(=O)OC1CC2C(ON(=O)=O)C1c1ccccc21 , C2/c ,1,0,1.54297110919,0.712085435226
9521, VENBEY , OCC1=C(CO)C(=NO1)C1=NOC(=C1CO)CO , P21/c ,1,0,1.5968666141299999,0.750220955096
9522, ZBXPEN , CC(=O)C(=C(C)OC(=O)c1ccc(cc1)N(=O)=O)c1ccccc1 , Pbca ,1,0,1.3956990520399999,0.72808676445
9523, DABTUY , COc1ccc(cc1)C1C(=NOC21CC(C)(C)c1ccccc1C2=O)c1ccc(C)cc1 , P21/n ,0,0,1.24941497729,0.668658998737
9524, LAQRIG , Cc1ccc(cc1)C=C(COc1ccccc1C=NO)C#N , P-1 ,1,1,1.2755934263200002,0.680443577728
9525, UDAFIQ , COC(=O)C(CC1NOC(CC1c1ccc(OC)c(OC2CCCC2)c1)OC1CCCCC1c1ccccc1)C(=O)OC , P-1 ,1,0,1.27541723489,0.702534337198
9526, TOKFOO , CCC(c1cccc2ccccc12)=N([O])C(C)Cc1ccccc1 , P212121 ,0,0,1.22176574965,0.717502488587
9527, KUVFOX , O=C(NN=Cc1cccnc1)c1ccc(cc1)N(=O)=O , P21/c ,1,0,1.4707228769299998,0.7363216875409999
9529, DUHTUW , CON=[N+]([O-])C(=C)[N+]([O-])=NOC , Pbca ,1,0,1.43736162725,0.683511194811
9531, QECYAA , CON=C(CO)c1ccccc1COc1ccccc1C , C2/c ,1,0,1.20374723156,0.669080934331
9532, CECCOE , O=N(=O)c1cccc2cnc3c4ccccc4ccc3c12 , P21/n ,0,0,1.46659672371,0.739068369647
9534, IFUXAL , COc1ccc(cc1)N1C(=C(C#N)c2ccccc12)Nc1ccc(cc1)N(=O)=O , P21/n ,0,1,1.34428324688,0.672701301619
9536, CARVOX01 , CC(=C)C1CC=C(C)C(C1)=NO , P21/c ,1,1,1.12196867317,0.663813953488
9538, SOLZOJ , CC(=O)Nc1ccccc1[N+]1=NOC(=C1)[O-] , P21/c ,1,0,1.47646446144,0.724167481931
9539, ELIGOX , O=C1N(CON(=O)=O)C2=NC3=NON=C3N=C2N1CON(=O)=O , P21/c ,1,0,1.7924406049700001,0.7182926829269999
9540, TACHOU , CCCCCCCC(=O)ON=C(c1ccccc1)c1ccccn1 , P21/n ,0,1,1.19603708139,0.6818548264100001
9542, UZEVUS , O=N(=O)C(=C1NC2OCCOC2N1)N(=O)=O , P21/c ,1,0,1.7948372291599999,0.767048957948
9543, FIVNUV , O=N(=O)c1ccc(cc1)C(C(C1C=CC=CC=C1)C1C=CC=CC=C1)=C(C#N)C#N , Pca21 ,0,0,1.3158363438299998,0.702243231901
9545, QOHFUQ , COC(=O)CC1CCC(C)C(O1)C(C)OC(=O)c1ccc(cc1)N(=O)=O , C2 ,0,0,1.28309142235,0.664499048565
9547, SASWAN01 , CCOC(=O)C(=CNc1ccc2N(CC)c3ccccc3c2c1)N(=O)=O , P-1 ,1,1,1.3862752302799999,0.707848017256
9548, KAKYOM , CC(=O)N(O)CC(=O)N(O)CC(=O)N1CCCCC1 , P21/c ,1,0,1.4069620573100001,0.71450617284
9549, JETPOQ , CC(C)OC(=O)C(O)(CN(=O)=O)c1ccccc1 , P212121 ,0,0,1.36543101783,0.697948175035
9550, SALTII , CONc1cc(OC)ccc1C12CC3C4COC1CC4C(CN3C2=O)=CC , P212121 ,0,0,1.3000719360700002,0.674859634575
9551, VETMUD , Nc1ccc(OCc2ccccc2)cc1N(=O)=O , P21/c ,1,1,1.39097418018,0.6952031911229999
9552, TAQNOQ , COc1cccc2OC3=CC=C(C)C4ON=C(C34)c12 , P21/a ,0,0,1.41463318252,0.7160751054019999
9553, GIJXAB , CCN(N=O)c1ccc2c(Oc3cc(ccc3C32OCc2ccccc32)N(CC)N=O)c1 , P21/c ,1,0,1.34594440282,0.67828626245
9554, FEWSOS , Cc1cc(C)c(c(C)c1)C1=NOC(=C1)CN1C(=O)N(C2=CCCCC2)c2ccccc12 , I2/a ,0,0,1.1834906082899999,0.6418358230110001
9555, AJONUI , CN1C(=NN=C1C1=N([O])C(C)(C)C(C)(C)N1[O])C , P212121 ,0,0,1.28347424697,0.6021173175150001
9556, KOFKUM , O=N(=O)c1ccc(C=Cc2cccc(c2)N(=O)=O)cc1 , P-1 ,1,1,1.4256388696899998,0.7011206328280001
9557, EMEDOQ , O=C1Oc2ccccc2C(=C1N(=O)=O)Nc1cccc2ccccc12 , P-1 ,1,1,1.4589808426100002,0.699268764448
9558, JABCEX , CC1=NON=C1C1=CC(=NN1N)N(=O)=O , P21/c ,1,1,1.63616111422,0.731922398589
9560, XATWIA , COc1ccc(COCC(C)N2CC(C)C(CN(C)C(=O)OC(C)(C)C)Oc3ccc(cc3CC2=O)N(=O)=O)cc1 , P212121 ,0,0,1.2409120895799999,0.662943366647
9562, BELBUP03 , ON1N=Nc2cccnc12 , Pca21 ,0,0,1.60261585272,0.728398025877
9563, XADPEA , CON(OC(C)C)C(N)=O , P212121 ,0,0,1.18201198311,0.628119594762
9564, XERMUC , O=N(=O)C1(ON=C2c3ccccc3c3ccccc23)c2ccccc2c2ccccc12 , P21/n ,0,0,1.33619509047,0.7140833333329999
9565, FUPWAO , CCOC(=O)C1CC2=C(Nc3ccccc23)C2C(CON12)C(=O)OC , P21/c ,1,0,1.3596206580599999,0.6892014519059999
9566, MEDNEQ , O=C1NN=C2COc3c(cc(cc3N(=O)=O)N(=O)=O)N12 , P21/n ,0,0,1.8121195613900003,0.751423149905
9567, GUTZOM , O=N(=O)c1ccc(cc1)C1=NN=C2N1N=Cc1ccccc21 , P-1 ,1,1,1.57472980764,0.75580342247
9569, RENMAB , O=C1NC2(C#N)C(c3ccc(cc3)N(=O)=O)C3=C(CCCC3=O)OC2(Cc2ccccc2)O1 , P21/n ,0,0,1.42206205135,0.6928244456329999
9570, TOCNEG , CCN(CC)c1ccc2c(Oc3cc(ccc3C32N(N=Cc2ccc(cc2)N(=O)=O)C(=O)c2ccccc32)N(CC)CC)c1 , Pna21 ,0,0,1.27568954263,0.664281654691
9571, VUQFOD , CCOC(=O)C1(C(C1c1ccc(cc1)N(=O)=O)C(=O)c1ccc(C)cc1)C(=O)OCC , P21/c ,1,0,1.29753109771,0.66193469593
9572, DEJVEW , [O]N1=C(CCCCC(O)=O)C(=O)NC21CCCCC2 , P21/a ,0,0,1.29138571457,0.672517558258
9573, CAVQOF , Oc1ccccc1C=Nc1ccc(cc1)N(=O)=O , P21/c ,1,0,1.45991509321,0.7251484148039999
9574, JIRGIB , Cc1ccc(c2c(cc(nc12)C1=[N+]([O-])C2(C=C(C(=O)C2C1=O)C(C)(C)C)C(C)(C)C)N1CCCCC1)N(=O)=O , P-1 ,1,1,1.2228311896,0.642322971005
9575, GEXQOS , O=C1CCCCC1=Cc1cccnc1N(=O)=O , C2/c ,1,1,1.40893361467,0.72085
9576, KEDWOF , CC(C)C1=CC(O)C(C)(C(ON(=O)=O)C1N(=O)=O)N(=O)=O , P-1 ,1,1,1.5123624690200002,0.70628115653
9578, YISCIM , COc1cccc(c1)C1=N([O])C(C)(C)C(C)(C)N1[O] , P21 ,0,0,1.25102192809,0.700267796896
9579, HABXOX , OC(=O)C1=[N+]([O-])C2(CCCCCCCCCCC2=O)CC1 , P21/c ,1,0,1.31496287692,0.728617177865
9580, GAYYOW , COC(=O)c1cc(OC)c(NC(=O)c2cc(OC)c(cc2NC(C)=O)N(=O)=O)cc1NC(C)=O , P-1 ,1,1,1.4706164461700002,0.7085924543950001
9581, CUNWEN , CC1(C)OC(=O)C(=NNc2ccc(cc2N(=O)=O)N(=O)=O)C(=O)O1 , P21/c ,1,0,1.52369958648,0.667644542232
9583, WETGIN , NN1N=C(C(=C1N(=O)=O)N)N(=O)=O , Pbca ,1,0,1.9227542388699999,0.788316761364
9584, OMAHAL , CC1(C)N([O])C(=[N+]([O-])C1(C)C)C1=CNC=N1 , I41/a ,1,0,1.28254996317,0.66612905435
9585, GANNAN , [O-]N1C=C(N=[N+]1C(c1ccccn1)c1ccccn1)c1ccccc1 , P-1 ,1,1,1.34772462537,0.68404040404
9586, JOPHEB , CON1C(=O)C2(CC3NC(CO)(C(C)O)C4CC2OCC34)c2ccc(OC)cc12 , P212121 ,0,0,1.33193805886,0.6752645352140001
9588, GAZNOM , COc1ccc(cc1)C1C2CCCC(C)(C(N1N=O)c1ccc(OC)cc1)C2=O , P212121 ,0,0,1.28000351988,0.685143423269
9589, HEGMAH , CON=C1CCC(=O)C1(C)CC1CCc2cc(OC)ccc2C1=O , P-1 ,1,1,1.2672701467799998,0.67291546866
9590, IJUKUT , COc1ccc(cc1)N1C2C(Oc3ccc(cc3C2C1=O)N(=O)=O)c1ccccc1 , Pccn ,1,0,1.3812574272999998,0.68303671637
9591, UVADUR , CCOC1CCC(C(N(O1)c1ccccc1)c1ccccc1)(C(=O)OCC)C(=O)OCC , P-1 ,1,1,1.26777033999,0.68298757285
9593, WACFUD , Cc1c(cccc1N(=O)=O)N=Cc1c(O)ccc2ccccc12 , P21/c ,1,1,1.36765218509,0.689452798663
9594, ZARJOU , OC12CCc3ccccc3C1C(C(C(C2N(=O)=O)c1ccccc1)N(=O)=O)c1ccccc1 , P21 ,0,0,1.3434234425100002,0.686445279866
9595, BECJEY , CC(C)(N(=O)=O)C(C)(C)N(=O)=O , P-1 ,1,1,1.4298224639300001,0.7332682291670001
9596, WOTFUG , COC1OC(C)(COC(=O)c2ccc(cc2)N(=O)=O)C(CC2C1C(CC=C2C)C(C)C)OC , C2 ,0,1,1.24133222668,0.665480895916