ID,name,smiles,space_group,inversion_symmetry,beta_packing,density,packing_coefficient
10040, HONPUV , CC1COC2C3OCC4CON(C34)C2N1O , P212121 ,0,0,1.3844796782,0.673586515895
10041, QUYQEH , CC(=O)N1N=C(CC1c1ccccc1)c1ccccc1N(=O)=O , Cc ,0,0,1.3739140687399998,0.6993978910590001
10044, GIJPEW , CCC1=NN(N=N1)c1cc(ccc1OC1=Nc2ccccc2N1Cc1ccccc1)N(=O)=O , P-1 ,1,1,1.3813162742700003,0.670487231847
10045, LIDCAC , CC12C=CCCC1C(CC1CCCCC21)=NNc1ccc(cc1N(=O)=O)N(=O)=O , P21/c ,1,0,1.3286484499200002,0.679527836505
10046, EDAYIR , CCOC(=O)C1=C(Nc2ccccc2)N=C2C=CC(=CN12)N(=O)=O , P-1 ,1,1,1.46603164962,0.711609152288
10047, LEWGEA , CCN1C(=O)c2ccc(cc2C1=O)N(=O)=O , P21/c ,1,1,1.4528284222499999,0.6949692307690001
10048, QATJEB , CC1(C)OCC(O1)C1C(CO)CON1Cc1ccccc1 , P212121 ,0,0,1.2836466693200002,0.697745912104
10049, YEJVIU , CC1(C)OC2C(OC(C(O)CN(=O)=O)C2O1)N=[N+]=[N-] , P212121 ,0,0,1.4394243664700002,0.6798020883920001
10051, NERFIC , COc1cc(cc(c1O)C1=[N+]([O-])C(C)(C)C(C)(C)N1)N(=O)=O , C2/c ,1,0,1.3452269352000001,0.73859902281
10052, CIZQAE , CCOC(=O)C1=C(C)N(C=CC1c1ccccc1N(=O)=O)c1ccccc1 , P21/c ,1,1,1.3231516118200002,0.689115456945
10053, NBZOAO03 , OC(=O)c1ccccc1N(=O)=O , P-1 ,1,1,1.5662792868000002,0.721697405908
10054, KUMJEJ , CCOC(=O)C(C(CN(=O)=O)c1ccccc1)C(C)=C1C(=O)N(C(=O)OC(C)(C)C)c2ccccc12 , P212121 ,0,0,1.27809353056,0.668218085106
10055, UFOGUT , COC(=O)C1(CC(ON(C1c1ccccc1)c1ccccc1)c1ccccc1)N(=O)=O , P212121 ,0,0,1.3633405463100001,0.702792056339
10056, FUCTOM , COc1ccc(NN=C(C(C)=O)C(=O)Nc2ccccc2OC)c(c1)N(=O)=O , P21/c ,1,0,1.43289305844,0.709187448318
10057, CUBNES , O=C1c2ccccc2c2ccc(cc12)N(=O)=O , P21 ,0,0,1.5156735023899999,0.733698499643
10058, SAVJEH01 , O=C(NC1CCCCC1)C(N1CC2=CON=C2c2ccccc2C1=O)c1cccc(c1)N(=O)=O , P-1 ,1,1,1.3729760960799997,0.690082644628
10059, YUCPOC , O=N(=O)c1c(Nc2ccccc2)ncnc1Nc1ccccc1 , P21/c ,1,0,1.51854002097,0.7432513914659999
10060, FUBGAL , CC(=O)NC12CCC3=NOC(C13)C(=O)C=C2 , P21/c ,1,1,1.41878586387,0.70666842692
10061, DICREN01 , CC(C)(C)OC(=O)NNC1(CCCC1=NNc1ccc(cc1)N(=O)=O)C(=O)OC(C)(C)C , P-1 ,1,1,1.1988458392899999,0.613240998548
10062, HABXUD , OC12CCCCC1(CC(CC2N(=O)=O)N(=O)=O)N(=O)=O , P21/c ,1,0,1.58336651842,0.736417186417
10063, ISISUY , COC(COC(=O)c1ccc(cc1)N(=O)=O)CC(OC)C(C)COC(=O)c1ccc(cc1)N(=O)=O , P21 ,0,1,1.36329550109,0.6869501999269999
10064, HACQEJ , O=C(NC=NOCc1ccccc1)c1cccc(n1)C(=O)NC=NOCc1ccccc1 , P21/n ,0,0,1.33052345248,0.7282559486679999
10065, BESNES , COC(=O)C(=CC1=CNc2ccccc12)N(=O)=O , P21/m ,0,1,1.46036156671,0.654661487236
10066, NMZNON , CN1CC2(CC(=O)CC(C1)(C2)N(=O)=O)N(=O)=O , P21/c ,1,0,1.43770140479,0.679089521988
10067, SIFDAN , CC(C)C(NC(=O)ON1C(=O)CCC1=O)NC(=O)C1CCCN1C(=O)OC(C)(C)C , P21 ,0,0,1.31719705506,0.630677631579
10068, DEXFET , CCCCCC(O)C1C2C=C(C)CCC2CN1C(=O)c1ccc(cc1)N(=O)=O , R3 ,0,0,1.16744690409,0.63597985268
10069, QABFIK , CCCCC=N([O])C(COCc1ccccc1)C(C)C , P212121 ,0,1,1.11567279477,0.661213095964
10070, IFUWIR , ON1C=CN=C1 , P212121 ,0,0,1.41826582616,0.688079650846
10072, WUKZIL , CN(c1ccncc1)N(=O)=O , Pbca ,1,0,1.4404158634600002,0.709208418373
10073, KOXBOO , NC1=NON(=C1c1ccccc1)[O] , P21/c ,1,0,1.4562437865600002,0.7130380887989999
10074, XUWCEX , O=N(=O)c1ccc(C=Cc2ccc(cc2)N(=O)=O)cc1 , P21/c ,1,1,1.4525974965700001,0.720346320346
10075, XDHURC , O=C1CONC(=O)N1 , P212121 ,0,0,1.70381861914,0.75522317189
10076, WAQYEV , CCOC(=O)C(=Cc1ccccc1N(=O)=O)C#N , Pbca ,1,0,1.37133304076,0.67673828125
10079, QOMSIU , CCOC1CC2=C(CC(OCC)O1)C(=NO2)c1ccccc1 , C2/c ,1,0,1.2310857553399999,0.6757913887199999
10080, VASFAW , OC1=C2CCCCCCCC(CC1)(C2=O)N(=O)=O , Pbca ,1,0,1.3047160238700002,0.6944681942540001
10081, PUTCOW , COC1=C(C=C(C2=NN(N=C12)c1cc(cc(c1N)N(=O)=O)N(=O)=O)N(=O)=O)N(=O)=O , P21/c ,1,0,1.72437926936,0.726186342593
10082, OLUPAO , COc1cccc2CCCC(=NO)c12 , P-1 ,1,1,1.31425335048,0.693919995678
10083, FAZGOF , CC(=O)C1=C(C)N(N=N1)C1=NO[N+](=C1c1ccccc1)[O-] , P2/n ,0,0,1.4033389578600002,0.7078454798880001
10084, MADKUZ , CC(C)(C(O)c1ccncc1)N(=O)=O , P21/n ,0,0,1.3504573589700002,0.6923826500300001
10085, MNIANL02 , Nc1cccc(c1)N(=O)=O , Pca21 ,0,0,1.49210814744,0.753097779414
10086, SICBOY , Cc1cccc(c1)C1C(OC2=C1C(=O)CCC2)=NO , P21/c ,1,0,1.32402702243,0.686860965122
10087, PABBOJ , O=N(=O)c1cc2N=NN(c2c(c1)N(=O)=O)c1c(cc(cc1N(=O)=O)N(=O)=O)N(=O)=O , P21/c ,1,0,1.7557854727200002,0.7114186851209999
10088, KANDOS , CC1CC(CCCC1OC(=O)c1ccccc1)=NNc1ccc(cc1N(=O)=O)N(=O)=O , P-1 ,1,1,1.38247824991,0.692984943328
10089, ZEBXOT , CC(=O)OCC(OC(C)=O)C(OC(C)=O)C(OC(C)=O)C(OC(C)=O)C1C(N(=O)=O)C2(C)C(=O)C1(c1ccccc1)C(=C2c1ccccc1)c1ccccc1 , C2 ,0,0,1.2547698777,0.633677014562
10090, RUGHIM , CC(C)(C)c1cc(cc(c1[O])C(C)(C)C)c1ccc(cc1)N(=O)=O , Pbca ,1,0,1.23361760866,0.6881352291189999
10091, BERHEL , COc1ccc2c(ccc3OC(=Cc23)N(=O)=O)c1 , P21/c ,1,0,1.49137279714,0.720153738644
10092, AXOYER , CC1CCC(C(C1)OC(=O)C(O)C(c1ccccc1)N(=O)=O)C(C)(C)c1ccccc1 , P212121 ,0,0,1.25271279553,0.678261382893
10093, FUSXIA , COC1OC(CON(=O)=O)C(OC2OC(CON(=O)=O)C(O)C(O)C2O)C(O)C1O , P1121 ,0,0,1.56412082759,0.710009861933
10094, ITAFIT , CC1(C)CC(=O)C2=C(C1)Oc1ccc3ccccc3c1C2c1ccccc1N(=O)=O , C2/c ,1,0,1.35110821549,0.6916855406069999
10095, UFOHEE , O=N(=O)C1CC(ON(C1c1ccccc1)c1ccccc1)c1ccccc1 , P1 ,0,1,1.3045894768100001,0.689447135364
10096, EJEHOQ , COc1cc2OCC3Oc4c5CC(Oc5ccc4C(=NO)C3c2cc1OC)C(C)=C , P212121 ,0,0,1.35405586199,0.702516273195
10097, NIFDUC , O=C(C=CC1=CC=CO1)c1cccc(c1)N(=O)=O , P21/c ,1,0,1.4859265932299999,0.736214759536
10098, YOFJEK , Cc1ccc(CN2N=CC(=C2c2cccnc2)N(=O)=O)cc1 , P21/n ,0,0,1.3302438500700002,0.680827754108
10099, SOHXUJ , COc1ccn([O])c(C=Nc2c(cccc2C(C)C)C(C)C)c1 , P21/n ,0,1,1.23481486499,0.6939665728640001
10100, MENPND10 , COC(=O)C(=NNc1ccc(cc1N(=O)=O)N(=O)=O)C(=O)OC , P21/a ,0,1,1.55208916759,0.7124001077490001
10101, MOMBNO10 , None , P21/c ,1,0,1.30823580733,0.7403435559010001
10102, PUFFOL01 , CC1=N([O])N(=C(C)C1=O)[O] , P212121 ,0,0,1.39180018524,0.66880952381
10103, BESVEC , CC1(C)C2CCC(OC(=O)c3cccc(c3)N(=O)=O)C1C2 , P21 ,0,0,1.29863383733,0.68334740991
10106, QAQLIF , CCN(CC)c1ccc2c(Oc3cc(ccc3C32N(CCNc2ccc(cc2)N(=O)=O)C(=O)c2ccccc32)N(CC)CC)c1 , P-1 ,1,1,1.2788864702299998,0.670805720265
10107, FEDVES , Cc1ccc2C3=C(c4c(O3)c3ccccc3cc4c3ccc(cc3)N(=O)=O)C3(C(=O)N(Cc4ccccc4)c4ccccc34)c2c1 , P21/c ,1,1,1.1188826241399998,0.562702166616
10108, LAJKOX , CON=[N+]([O-])NC1CCCCC1 , P21/c ,1,0,1.24058595217,0.6672234580049999
10109, REQZIW , CC1=CC(=NO1)CC1=Nc2ccccc2N1 , P21/c ,1,0,1.34727731916,0.695520152505
10110, JUKSIR , COc1ccc2C=C(Oc3cccc1c23)N(=O)=O , P-1 ,1,1,1.51082017492,0.7296138468009999
10111, LOXPAP , OCC(N1OCC2COc3ccc(cc3C12)N(=O)=O)c1ccccc1 , P212121 ,0,0,1.43399893218,0.7129186602869999
10112, BOKLAO , Cc1cc(OCc2ccccc2)ccc1N(=O)=O , P21/c ,1,1,1.29093508627,0.669873678026
10113, FEPBOT , ON=C(c1cccnc1)c1ccccn1 , P21/c ,1,0,1.4068734490900001,0.717282650486
10114, KAKNEP , CCc1ccc(CC(O)c2ccc(cc2)N(=O)=O)nc1 , Pcab ,0,0,1.2749406550700002,0.66317140792
10115, BAPSOD , CC1(C)N([O])C(=N([O])C1(C)C)C1=CC=C(N1)C=O , P21/c ,1,0,1.27975177449,0.6637901111919999
10116, VUMTUU , O=C1C2CCC(C2)C(c2ccc(cc2)N(=O)=O)c2ccccc12 , P21/c ,1,0,1.33117744376,0.697865676543
10117, BOGGIP , CCCCC1C(C(C(CCC)C2N1CCC1=C2Nc2ccccc12)c1ccccc1)N(=O)=O , P21 ,0,0,1.1759888303000001,0.643543627497
10118, BEKKIO , O=N(=O)N(CN(C1=NON=C1C1=NNN=N1)N(=O)=O)C1=NON=C1C1=NNN=N1 , P-1 ,1,1,1.85751184773,0.727743271222
10120, HOFMIZ , Oc1ccccc1N1C(=O)c2ccc(cc2C1=O)N(=O)=O , P212121 ,0,0,1.5529554132499999,0.738042721152
10121, NIGQOK , Nc1ncnc(C=C(N2CCCC2)c2ccccc2)c1N(=O)=O , Pbca ,1,0,1.34896947956,0.675052979401
10122, QISPAJ , OCC1CCC23CCCCC2CCC(=O)N3O1 , P21/a ,0,0,1.28919835523,0.688707304092
10123, COHTOK , CC(OC(=O)c1ccc(cc1)N(=O)=O)C(C)C(C)C(C)C(C)C(C)C(C)C(C)C(C)C(C)c1ccc(cc1)c1ccccc1 , P21 ,0,0,1.18233223289,0.696148994911
10125, BOHLIT01 , O=N(=O)c1ccccc1N=N(=O)c1ccccc1N(=O)=Nc1ccccc1N(=O)=O , P21 ,0,0,1.55700470138,0.687628049916
10127, XUTPOT , CN1C(=O)C2CC(N(O)c3ccccc3)C3=C(C2C1=O)N(C(C)=O)c1ccccc31 , P-1 ,1,1,1.3577563917299997,0.685761934542
10128, WAMMAY , CC(=NO)C1=CCC2C3CCC4C5=NON=C5CCC4(C)C3CCC12C , P212121 ,0,0,1.2280439486499999,0.695083288013
10129, AYUHOS , CC(C)(C)OC(=O)NOCC(O)=O , P21/c ,1,1,1.33623638624,0.685149333995
10130, IWUVON , CCOC(=O)C1C2C(ON1Cc1ccccc1)C(CO)OC2=O , P21 ,0,0,1.41378836248,0.714408929477
10131, TITXAW , Cc1ccc(cc1NC(=O)c1cnccn1)N(=O)=O , P21/c ,1,1,1.45704701685,0.708312623019
10132, FUYLES , COC1C2C(ON(c3ccccc3)C2(C)c2ccccc12)c1ccccc1 , P212121 ,0,0,1.2575716079700001,0.684945616348
10133, DERHEQ , CC(C)(C)C1N(CCCCNC(=O)CCNC1=O)C(=O)Cc1ccc(cc1)N(=O)=O , P21/c ,1,0,1.2759192072799999,0.678632927648
10134, YENSUI , CC(=NO)c1ccc(cc1)N=Cc1ccccc1O , P21/c ,1,0,1.2986194181,0.681884753902
10135, TOXYAI , [O-][n+]1cccc2Oc3ccc4ccccc4c3c12 , P21/c ,1,1,1.44734712942,0.711275894539
10136, OMOTEP , OCC1OC(C(O)C1O)N1N=CC2=C1C=CC=C2N(=O)=O , P21 ,0,0,1.5252579106600002,0.705123716153
10137, VECFIT , CCN1C(=O)c2cc(cc(c2)N(=O)=O)N(CC)C(=O)c2cc(cc(c2)N(=O)=O)N(CC)C(=O)c2cc1cc(c2)N(=O)=O , P21/n ,0,0,1.43967389793,0.695594627087
10139, LACGAY , CNc1nc(NC)nc(n1)C(CCC#N)(N(=O)=O)N(=O)=O , C2/c ,1,0,1.48301510963,0.6658865419009999
10140, OXACIB02 , CN=[N+]([O-])C1=NON=C1N(CN(C1=NON=C1[N+]([O-])=NC)N(=O)=O)N(=O)=O , Pna21 ,0,0,1.6627708748299999,0.695474943145
10141, BETDIN , COC(=O)c1ccccc1C1=NOCC(CO)O1 , P-1 ,1,1,1.42113498484,0.682365253794
10142, FOVWOD , CC(=NOCCON=C(C)c1ccc2ccccc2c1O)c1ccc2ccccc2c1O , C2/c ,1,1,1.3185077154,0.684717564755
10143, KECCOM , CC(OC(=O)c1ccc(cc1)N(=O)=O)C1C2C(CC=C1C)C2(C)C , P212121 ,0,1,1.2273053371,0.659866249783
10144, HAGYUK , O=N(=O)c1ccc(Oc2ccc3ccccc3c2c2c(Oc3ccc(cn3)N(=O)=O)ccc3ccccc23)nc1 , P1 ,0,1,1.40885876583,0.677274754683
10145, LEDVAR , [O]N=C1C(N2N=CN=C2N=C1c1ccccc1)c1ccccc1 , P21/c ,1,0,1.3350210703399998,0.618014403292
10146, LABTOX , CN1C=C(C2=C1C13CCCCC1C1C(C21)C3c1ccccc1)N(=O)=O , P-1 ,1,1,1.35312861912,0.719565406345
10147, YORSAB , COC(=O)C1=CN2C(CC1c1ccc(cc1)N(=O)=O)Oc1ccccc21 , Pccn ,1,0,1.41304077041,0.6955011144200001
10148, LEJKOA , O=N(=O)C1(C2CC3C4C2C2C4C(CC12)C3(N(=O)=O)N(=O)=O)N(=O)=O , P21 ,0,0,1.68157388917,0.732602457179
10149, OJUFIJ , O=C1C=CC2C3C=CC(C3C1N2c1ccc(cn1)N(=O)=O)=C(c1ccccc1)c1ccccc1 , P-1 ,1,1,1.34970987926,0.6814254003489999
10150, FAVDAJ , CC(=NNc1ccc(cc1)N(=O)=O)c1ccccc1N , Pna21 ,0,0,1.44121160616,0.738856643575
10151, IDOMEV , CC(C)OC(=O)C1=CC(=NO1)c1ccccc1 , P21/n ,0,0,1.2705095038299998,0.65983935743
10152, DOXROY , CC1(C)C2CCC1(C)C(=O)C2=NO , P-1 ,1,1,1.16506918013,0.649370552819
10153, VAFCAG , Cc1cccc(C)c1COc1ccc(cc1)N(=O)=O , P21/c ,1,0,1.25197901131,0.637363136614
10154, HAMTIZ , CC(=O)Nc1cc(c(cc1C)N(=O)=O)N(=O)=O , P21/n ,0,0,1.52787999886,0.7200875752600001
10156, ZIBZUF , COC(=O)C(ON=Cc1ccccc1)c1ccccc1 , P21/c ,1,1,1.24648903773,0.6735377505050001
10157, KIBPUJ , CC12CC3C(=O)N(CC3(O1)C1N=NN(C21)c1ccccc1N(=O)=O)c1ccccc1 , P212121 ,0,0,1.3898241473500001,0.682884399551
10159, JIHVEB , CC(=NO)N(=O)=O , P212121 ,0,0,1.6071777033599999,0.7343019005850001
10160, CTMTNA10 , O=N(=O)N1CN(CN(C1)N(=O)=O)N(=O)=O , Pbca ,1,0,1.86832993498,0.7809374780580001
10163, HEMXEF , CC1=C(C)C(=Cc2ccccc2)N(OC1)c1ccccc1 , P212121 ,0,0,1.21475055277,0.670818033456
10164, FOKTUU , O=C1NC(NC2CCCCC12)c1ccc(cc1)N(=O)=O , P-1 ,1,1,1.3885952984399998,0.702667219458
10166, CAYTOO , O=N(=O)c1ccc(OCCN2CCN(CC2)c2ccccn2)cc1 , P21/c ,1,0,1.3345594055299999,0.6851982969399999
10167, LEGYII , O=N(=O)C1=NN2CN3N=C(C(=C3NC2=C1N(=O)=O)N(=O)=O)N(=O)=O , Pna21 ,0,0,1.9368323329599997,0.7597829989229999
10168, XIZVAD , Oc1cccc2c1C(=O)C1OC1C12Oc2cccc3c(ccc(O1)c23)N(=O)=O , P21 ,0,0,1.5975768723500001,0.7261553970219999
10170, LOFSII , OC1=CC=CC(=CNc2ccc(cc2)N(=O)=O)C1=O , P-1 ,1,1,1.5166874287,0.7515179113539999
10171, KIBGEK , CN1CC(C(C(C)=O)C21c1ccccc1c1nc3ccccc3nc21)c1ccc(cc1)N(=O)=O , P-1 ,1,1,1.42604059505,0.7064355135279999
10172, PEPZIV , CN(C)c1cccc2c(cc(c(N(C)C)c12)N(=O)=O)N(=O)=O , C2/c ,1,1,1.45047019146,0.72850678733
10173, ABIFUO , O=C(Cc1ccccc1)ON=C(C(=O)NC1CCCCC1)c1ccccc1 , P21/n ,0,0,1.22565439498,0.661351970307
10175, MFZCHZ , CC1=NON=C1C(=O)NN , P21/n ,0,0,1.5196224302899999,0.710701088585
10176, SIVPOC , CC(N1OC21CCCCC2c1ccccc1)c1ccccc1 , C2/c ,1,0,1.1818094506399999,0.6800472650380001
10177, DIHWEZ , NC(=O)C(=C(O)c1ccccc1)C1=C(OC(=C1C#N)c1ccccc1)c1ccc(cc1)N(=O)=O , Pbca ,1,0,1.31927301793,0.6475935828880001
10178, TASTEM , None , Pnma ,1,0,1.2980112884200001,0.68574746972
10179, MNPYDO08 , Cc1cn([O])ccc1N(=O)=O , P212121 ,0,0,1.54501972491,0.7359543986139999
10180, HACJIE , O=N(=O)c1ccccc1N=N(=O)c1ccccc1N(=O)=Nc1ccccc1N(=O)=O , P21/c ,1,0,1.5210714109299999,0.71270906325
10181, RUGPAL , Cc1ccc(cc1)N1C=C(C(=O)c2ccc(C)cc2)C(=N1)C1=CC=C(O1)N(=O)=O , P-1 ,1,1,1.40604046165,0.709099639856
10183, ROFWEP , CN1N(c2ccccc2)C(=O)C(=C1C)N=Cc1ccc(O)c(c1)N(=O)=O , P21/c ,1,1,1.3895596848700003,0.6917958025040001
10184, VIYMOH , Cc1cc(N=O)c(C)c(C)c1C , P21/n ,0,1,1.23954726465,0.7179926560590001
10185, ZZZQSC01 , Cc1c(cccc1N(=O)=O)N(=O)=O , P212121 ,0,1,1.5476417667,0.726909518214
10186, HOFFIT , CC(C)C1C(N(C)C(CC1=NOC(=O)c1cccnc1)c1ccccc1)c1ccccc1 , Pna21 ,0,0,1.19716213698,0.648138535534
10187, RESKAC , CCOC(=O)c1c2ccc3C(=O)c4cccnc4c3n2c(C(=O)c2ccc(cc2)N(=O)=O)c1C(=O)OCC , P21/c ,1,1,1.4719365704299998,0.711017628205
10188, PABPEN , CN(C)CCCNc1ccnc2c1ccc(C)c2N(=O)=O , P21/c ,1,0,1.21293022218,0.6404291979950001
10190, REMZAM , [O-][N+](C1=CCC2(CC1)OCCO2)=C1c2ccccc2c2ccccc12 , P21/c ,1,0,1.32793276126,0.6820970808
10191, ACEREG , CC1=CC(=O)N(CC(=O)c2cccc(c2)N(=O)=O)C2=C1CCCC2 , P-1 ,1,1,1.3728277050400002,0.700813087297
10192, ISURUJ , OC(=O)CON=C1CCCCC1 , P-1 ,1,1,1.33499387914,0.7184990934990001
10194, UREJIL , O=C(NC(=O)c1ccc(cc1)N(=O)=O)c1ccc(cc1)N(=O)=O , Pbca ,1,0,1.4814970426700003,0.7137096774189999
10195, EZAROM , CC1ON2CC3CC(OCc4ccccc4)C2C1C3 , P212121 ,0,0,1.1987131927099999,0.651637833854
10196, SUBWIV , O=N(=O)c1ccc(NN=C(C#N)C#N)cc1 , P21/c ,1,0,1.43428085382,0.6786783968719999
10197, NASTOR , CC(C=C)C(C[N+]([O-])=Cc1ccc(cc1)N(=O)=O)N(Cc1ccccc1)Cc1ccccc1 , P212121 ,0,0,1.2007535195799999,0.649090978535
10198, FIGZUQ , CCC1(CC)C(=O)N(Cc2ccc(cc2)N(=O)=O)C(=O)N(Cc2ccc(cc2)N(=O)=O)C1=O , P21/n ,0,0,1.36004005648,0.617165776888
10199, UCAPUM , CN1C=C(NC(=O)Cc2ccc(cc2)N(=O)=O)c2ccccc12 , Pc ,0,0,1.4097377868799998,0.717327132178
10200, ZORHOD , CC1=C(C)C2(C)ON3OC2C(C1C3(N(=O)=O)N(=O)=O)N(=O)=O , P21/c ,1,0,1.59757480034,0.7089346006530001
10201, PIZDIN , COC(=O)C=CC1OC(C)(C)OC1COC(=O)c1ccc(cc1)N(=O)=O , P1 ,0,1,1.4093234025299999,0.6967180890379999
10202, GARWII , COC(=O)C(=C(N)c1ccc(OC)cc1)c1ccc(cc1)N(=O)=O , P21/n ,0,1,1.4199837699700002,0.718115676204
10203, FOJPIF , [O]n1c(cccc1C(O)=CC(=O)c1ccccc1)C(O)=O , Pbca ,1,0,1.50540338459,0.727597638678
10204, ODANUC , CN(C(=O)NC(=O)c1ccccc1)C(=O)C1=C(C#N)C(=NO1)c1c(C)cc(C)cc1C , P21/c ,1,0,1.35601577606,0.6938915083239999
10205, BOWXOB , CCN(CC)[N+]([O-])=NOC1OC(COC(C)=O)C(OC(C)=O)C(OC(C)=O)C1OC(C)=O , P212121 ,0,0,1.30494181625,0.654242724868
10207, YETVEB , CC1=NOC(=C1C)NC(=CC(=O)c1ccccc1)C(=O)c1ccccc1 , P-1 ,1,1,1.33038851362,0.697315396468
10208, XUDSAS , O=N(=O)c1ccc(cc1)c1nc2c(nc1c1ccc(cc1)N(=O)=O)c1nc(c3ccc(cc3)N(=O)=O)c(nc1c1nc(c3ccc(cc3)N(=O)=O)c(nc21)c1ccc(cc1)N(=O)=O)c1ccc(cc1)N(=O)=O , Pbcn ,1,1,0.980295226106,0.44959584090000004
10210, LOHQAC , CCOc1ccc(cc1)C(C=Cc1ccccc1OC)=NO , P-1 ,1,1,1.26247215636,0.6794074074070001
10213, FOSYES , CN(C)c1cccc(C)c1c1c(C)cccc1Nc1ccccc1N(=O)=O , P212121 ,0,0,1.23324677139,0.6700584225899999
10214, BUTMOU , CC(C)=CC1=CC(=C(C(=O)O1)c1ccc(cc1)N(=O)=O)C , P21/c ,1,0,1.38644871128,0.719416498994
10215, GESBIQ , CC1CC2OC(COCc3ccccc3)(C1)OC2C=NNc1ccc(cc1N(=O)=O)N(=O)=O , C2 ,0,0,1.35632894868,0.6700200065999999
10216, EMITAV , None , P212121 ,0,0,1.46055799968,0.712144624552
10217, GAVXEH , CCOC(=O)C1=C(C)NC(=C(C1C1=CC=C(O1)c1ccc(cc1)N(=O)=O)C(=O)OCC)C , Pca21 ,0,0,1.38033159283,0.6941504281759999
10218, SISGUW , COCOC1CCCC(C1N(=O)=O)C1C(=O)CCc2c(OC)cccc12 , P21 ,0,0,1.2974303841200001,0.6975029327969999
10219, WOTGAN , COC(OC)C1C(CC=C(C)C1COC(=O)c1ccc(cc1)N(=O)=O)C(C)C , P212121 ,0,0,1.2032251242899998,0.641867417299
10220, JOHBUD , O=N(=O)C1C(N(=O)=O)C21CC2 , Cc ,0,1,1.5513863553100002,0.7248904010989999
10221, JEHDEF , CON1C(=C)C(O)C2(C(O)C(=O)C=CC2C=CC)C1=O , P21 ,0,0,1.31017926873,0.682905187526
10222, CESYOR , CC(=O)N1OC(O)CC1c1ccccc1 , P21/n ,0,0,1.315851808,0.6897514250460001
10223, JAPXIK , O=N(=O)c1ccc(C=CC2=NN(CC2)c2ccccc2)cc1 , P21/c ,1,0,1.3075131121999999,0.672775112212
10224, SAWXOE , COc1ccc2C(=O)C(=[N+]([O-])c2c1)c1ccccc1 , Pna21 ,0,0,1.41063497333,0.711331261331
10227, MOMFIF , CC(C)(C)C1=NOC(=N1)c1ccc(NC(=O)C=CC(O)=O)cc1 , R-3 ,1,1,1.3760474121700002,0.69609667719
10228, XIQKAM , CON1C(=O)C2(CC(C3COC(OC4CC(C)CCC4C(C)C)C2(O)C3)N(=O)=O)c2ccccc12 , P212121 ,0,0,1.25370488039,0.650439467823
10229, FOMNEB01 , COc1ccc(cc1)C=CC(=NOCC(O)=O)c1ccccc1 , P21/c ,1,0,1.2876083754899998,0.672121212121
10230, NPYRAM , O=N(=O)c1cccnc1NCNc1ncccc1N(=O)=O , P-1 ,1,1,1.53168271446,0.694989534275
10231, LANCIN , CC1(C)N(=C(c2ccc(cc2)c2cc(cc(c2)C2=N([O])C(C)(C)C(C)(C)N2=O)C2=N([O])C(C)(C)C(C)(C)N2=O)N(=O)C1(C)C)[O] , P-1 ,1,1,1.27022698567,0.6593538127440001
10232, LAPWIL , Cc1c(cc(cc1N(=O)=O)N1C=NN=N1)N(=O)=O , P21/n ,0,0,1.63236780645,0.7110452289020001
10233, ZUKYAF , CC1C=CC(ON1C(=O)OCc1ccccc1)N1C(CCC1=O)C(=O)OC(C)(C)C , P21 ,0,0,1.2326724378899998,0.657765758547
10234, KAMJAL , CCC(ON1C(C)(C)CC(=O)CC1(C)C)c1ccccc1 , P-1 ,1,1,1.1439479779200001,0.667225429937
10235, FEKZUS , CN(C)C(=O)CC12CCCNC1C1=C(CC2)N(O)c2ccccc12 , P21/c ,1,0,1.2905000403,0.7075426057269999
10236, SAVNAH , CC(C)(C)OC(=O)C1ON(C(c2ccccc2)C21C(=O)N(C(=O)OC(C)(C)C)c1ccccc21)c1ccccc1 , P212121 ,0,0,1.2088898180399998,0.633586095476
10238, BASNIT , CN1OC(C)(CC1C(N)=O)c1ccccc1 , P21/c ,1,0,1.22707941498,0.683405878365
10239, MEQVAG , [O]N1=C2C=C(C3=NN=NN3C2=NO1)N(=O)=O , P212121 ,0,0,1.8528999904900003,0.728983616065
10240, LIMWIN , None , I-42d ,0,0,1.4261201668399999,0.712453330122
10241, MASJEW , CC(C)C1CCC(O)(CC1)COC(=O)c1ccc(cc1)N(=O)=O , P21/n ,0,0,1.26153774514,0.668041598248
10242, ONONIP , CCOCN1C(c2ccc(cc2)N(=O)=O)C(=C(C)NC1=O)C(=O)OCC , P21/c ,1,0,1.30973293262,0.656129032258
10243, NUTPEX , Cc1ccc(cc1)C1=NOC(=C1)CC(=O)c1ccc(O)cc1O , P21/c ,1,0,1.31220365225,0.667492260062
10244, GEQGAN , CC1c2ccccc2C2=C1c1ccccc1N2c1ccccc1N(=O)=O , P212121 ,0,0,1.3237431714399999,0.685789766407
10245, BANJEG , COc1ccc(cc1)C=C(C#N)c1ccc(cc1)N(=O)=O , P21/c ,1,1,1.39321985465,0.7210571244
10247, DEQROJ , CC(OC(=O)Nc1ccccc1)C1C2OC(C)(C)OC2C2N1CCC1(C)CON=C21 , P212121 ,0,0,1.25176744963,0.650195181994
10249, BORZUE , COc1cc2ccccc2c2ON(C(c3ccccc3)c12)C(C)(C)C , P21/n ,0,1,1.27488509341,0.7083987441130001
10250, GAFVAN , COC(=O)C1(CCC(=N1)c1ccccc1)C(CN(=O)=O)c1ccccc1 , P212121 ,0,0,1.29247628943,0.674327122153
10251, BENZAN , O=C(c1ccccc1)C1=C2C=CC=CC2=NO1 , P21/c ,1,0,1.36078696672,0.7158509454950001
10252, PAKPAV , CONC1C(N2N(C(=O)N(C2=O)c2ccccc2)c2cc(OC)ccc12)C(C)=NOC , P21/c ,1,1,1.29277991808,0.6453470353149999
10253, KEFJUD , O=C(Nc1ccc(cc1C1=NCCO1)N(=O)=O)c1ccccc1 , P-1 ,1,1,1.4455765517299999,0.6997550240000001
10254, YETTUP , CC1=C(NC(=CC(=O)c2ccccc2)C(=O)c2ccccc2)C(=NO1)C , P21/c ,1,1,1.2985473829,0.681945850759
10255, TIVBOQ , CCN(CCOC(=O)c1c2ccccc2cc2ccccc12)c1ccc(cc1)N=Nc1ccc(cc1)N(=O)=O , P-1 ,1,1,1.3875432245700001,0.719290316599
10257, FUBFOY , COC(=O)C1(C(C1N(=O)=O)c1ccc(cc1)N(=O)=O)C(=O)OC , P21 ,0,0,1.5000191814500001,0.706304696167
10258, PEFTIE02 , CN(CC#N)c1ccc(cc1)N(=O)=O , Pbca ,1,0,1.28844179067,0.657453148904
10259, HEGLUA , CON=C1CCC(=O)C1(C)CC1CCc2cc(OC)ccc2C1=O , P-1 ,1,1,1.2798218791,0.685110114427
10260, XUBHAE , CCOC(=O)C1CC(C)NC(=C1C(=O)OCC)Cc1ccc(cc1)N(=O)=O , P21/c ,1,0,1.3198327221,0.690732959851
10261, FULPAD , COC(=O)C1=C(C)NC(=C(C1c1ccccc1N(=O)=O)C(=O)OCC(C)C)C , P21/n ,0,0,1.3113818959899999,0.690897015159