ID,name,smiles,space_group,inversion_symmetry,beta_packing,density,packing_coefficient
5353, ATUJIK , O=N(=O)C1=CC=C(NCCN2CCOCC2)C2=NON=C12 , Pcab ,0,0,1.4468408030700002,0.6976099537039999
5354, PEVPIP , CC1(CC2CC3CC2C1C3O)N(=O)=O , P21/c ,1,0,1.3747942603,0.725483119032
5355, CUGSOM , CN1c2ccccc2N(Cc2ccc(cc2)N(=O)=O)c2ccccc12 , P21/a ,0,0,1.3524004345899998,0.689704058125
5356, CEFVAN , CC(C1N(OC(=C1N(=O)=O)C)C(C)(C)C)c1ccccc1 , P31 ,0,0,1.22964946943,0.68869022279
5357, MAZWIU , OC(=O)c1ccccc1C(=O)Nc1cccc(c1)N(=O)=O , P21 ,0,0,1.5215722838299999,0.717505854801
5358, BIZGUM , CC1=CCC(C)(C)C=CCC(C)(N=O)C(CC1)N(=O)=O , P21/n ,0,1,1.12970403171,0.6536241536240001
5359, PEYFAC , COc1ccc(cc1)C=C(C(O)=O)c1ccc(cc1)N(=O)=O , P-1 ,1,1,1.44027426667,0.7187750521080001
5360, QEGZAG , COc1ccc(cc1)C1=NN(C=C1C=C1C(=O)ON=C1C)c1ccccc1 , Pbca ,1,0,1.3473958115600002,0.686950290211
5361, GAVKUJ , CC(C)(C)N([O])=N([O])C(C)(C)C , P21/n ,0,0,1.1030444314299999,0.638770053476
5362, RIWPIW02 , ON=C1C=CC(=O)c2ncccc12 , P21/c ,1,0,1.4909975854700002,0.719570707071
5363, AWUXOF , CC(C)(C)OC(=O)NCC1(CCCCC1)CC(=O)ON1C(=O)CCC1=O , P21/c ,1,0,1.24394508171,0.657641557204
5366, DIMNAN01 , CN(C)c1ccc(cc1)N(=O)=O , P21 ,0,0,1.41761233461,0.747110849057
5367, NANILI25 , Nc1ccc(cc1)N(=O)=O , P21/n ,0,0,1.4834190319,0.728616580375
5368, DICBOI , CC(C)(C)OC(=O)NC(C(Cc1ccccc1)c1ccc(cn1)N(=O)=O)c1ccccc1 , P1 ,0,1,1.27262558248,0.689062163327
5370, KUHVUE , COC(=O)C(=C[C-](N(=O)=O)N(=O)=O)[N+]1=NN2C=CC=CC2=C1C , P-1 ,1,1,1.50582360724,0.6836265960760001
5371, CNOXPA , CC1=C(C#N)C(C)(C)C(=O)C(N1)=CN(=O)=O , P21 ,0,0,1.3706393424399999,0.7152237189470001
5372, YEFSIN , COC(=O)CC(C(CN(=O)=O)C=Cc1ccc(OC)cc1)c1ccccc1OC , P21/n ,0,1,1.27827933854,0.6791561901340001
5373, SAQTEL , O=N(=O)c1ccc(cc1)C1C2N(C=Cc3ccccc23)C(C2N1C=Cc1ccccc21)c1ccc(cc1)N(=O)=O , Pna21 ,0,0,1.33880454642,0.677470510351
5374, HONLOL , CC1CCC(C(C1)OC(=O)N1OC2CCC1C=C2)C(C)(C)c1ccc2ccccc2c1 , P21 ,0,1,1.17130347627,0.644582641817
5375, NOMBEA , Cc1c(cc(cc1N(=O)=O)C(O)=O)N(=O)=O , P21/a ,0,0,1.6186858022400001,0.690992675705
5377, HAZZUD , COC(=O)C1(O)C(N(N=C1N1CCCC1)c1ccc(cc1)N(=O)=O)c1ccccc1 , Pbca ,1,0,1.4014840513299998,0.722307617235
5379, SEBSAT , CC1CC(C2C3C4CC(C=C4)C3C(=O)C32OC13)N(=O)=O , P21/c ,1,0,1.36569132148,0.6959839918100001
5381, XOTCIU , COc1c(OC)c2cc(cc3c(OC)c(OC)c4cc(cc1c4c23)N([O])C(C)(C)C)N([O])C(C)(C)C , C2/c ,1,1,1.25469096725,0.664172128812
5382, GUFPIG01 , Cc1ccc(cc1)C=NC1CC(C)(C)N([O])C(C)(C)C1 , P21/c ,1,0,1.12005632854,0.654567453116
5383, FIHLEO , COc1ccc(cc1)C=Cc1c(cccc1N(=O)=O)N(=O)=O , P21/c ,1,1,1.49330643174,0.737462537463
5384, EDOREW , O=N(=O)c1cc2NN=Nc2c(c1N=[N+]=[N-])N(=O)=O , P21/c ,1,1,1.77234679368,0.7151649981460001
5385, PUPJEP , CCOC(=O)C(O)C1Nc2cc(ccc2NC1=O)N(=O)=O , P1 ,0,1,1.52753332511,0.711459785101
5386, SABPOA , O=N(=O)OC12C3CCC(C3)C1(C1CCC2C1)N(=O)=O , P-1 ,1,1,1.48658013247,0.708340674442
5387, ROCMIG , CC1(C)OCC(O1)C(N(O)Cc1ccccc1)C1=CC=CN1 , P43212 ,0,0,1.16945190955,0.625764757373
5389, DUNXAM , CC1(C)N([O])C(=N([O])C1(C)C)C1=CNc2ccccc12 , Pca21 ,0,0,1.28888220479,0.679032651072
5390, GIJHEP , CC(C)(C)C(=O)ON=C(CNC(=O)c1ccccc1)c1ccccc1 , Pccn ,1,0,1.17409170356,0.631502662115
5392, BAKTOX , COC(=O)C1=CON=C1C , P21/c ,1,0,1.35361709027,0.680660954712
5394, HUXKUH , CC12CCC(OC(=O)c3ccc(cc3)N(=O)=O)C1(O)C1(C)OC(=O)CC1O2 , P21/c ,1,0,1.43573010284,0.69196969697
5395, SIRWUM , CC1(C)N([O])C(C)(C)c2cc3ccccc3cc12 , P43212 ,0,0,1.1178936607899999,0.631758639911
5396, MAYVAL , CCc1cccc(n1)N(O)C(CCC(C)=CCO)C(C)=C , P-1 ,1,1,1.14131320464,0.659455699209
5397, IJUXUH , CC(=O)N1N=C(CC1c1c2ccccc2cc2ccccc12)c1ccc(cc1)N(=O)=O , Pca21 ,0,0,1.40890490155,0.7169524959739999
5398, EHAXOC , COc1ccccc1C1CC(O)ON1C(=O)OCc1ccccc1 , P21/c ,1,0,1.3820152555899998,0.708897521273
5399, QEDGAK , O=C(CN1C=CC(=N1)N(=O)=O)c1ccccc1 , P21/c ,1,0,1.43492579718,0.702812963597
5400, LETNAZ01 , CC1=C(C(=NN1)C)N(=O)=O , P3221 ,0,0,1.3870010542200002,0.675728407908
5402, IGAMOV , Cc1c(O)c(O)c(C=O)c2CCC(c3ccc(cc3)N(=O)=O)c12 , C2/c ,1,0,1.48053224769,0.734354803115
5403, FANDUW , O=C1c2ccccc2OC(c2ccccc2)C21N=NCC2c1ccc(cc1)N(=O)=O , P21/n ,0,0,1.36238194251,0.671628865014
5404, WONTUO , CC(=O)C(=C)C(O)c1ccc(cc1)N(=O)=O , C2/c ,1,0,1.38617620044,0.704399205561
5405, HUHCIY , CC12OCC(=Cc3cccc(c3)N(=O)=O)C1C=C(O)C=C2 , P21/n ,0,0,1.34927534822,0.681862099253
5406, MUGNUX , O=N(=O)N1C2OC3OC2N(C2OC3OC12)N(=O)=O , P-1 ,1,1,2.0076009797,0.774958374958
5407, NILNOL , CCC(=CC1OC2OC(C)(C)OC2C2OC(C)(C)OC12)N(=O)=O , P212121 ,0,0,1.28408633036,0.678317459148
5408, IKALIP , COc1ccc(cc1)C(=O)C1CC2(ON1c1ccccc1)OC(=O)c1ccccc21 , P21/c ,1,0,1.3769687071399999,0.6926941283429999
5409, DAFVEL , CC(CN(C)C)N=C1c2ccccc2Nc2cccc(c12)N(=O)=O , R-3 ,1,0,1.19687812957,0.635346942443
5410, DEKYIC , COc1cc(O)c(cc1N(=O)=O)C(C)=O , Pbca ,1,0,1.4688973056499999,0.698016326531
5411, WAMLIG , COC(=O)c1cccc(c1)N(=O)=O , P21/c ,1,0,1.43131691993,0.690855467968
5412, UJIHAX , CC1=CC(=NN1)NC(=O)Nc1cccc(c1)N(=O)=O , P21/n ,0,0,1.5085173499700002,0.721914008322
5413, XIBDET , COc1ccc(OC)c(c1)C1=NOC2C3CC(C4C3C(=O)N(C)C4=O)C12 , P21/n ,0,0,1.3949263800999998,0.693056055529
5414, WOFQIS , O=N(=O)c1ccc2OCOc2c1 , P21/c ,1,1,1.62417195229,0.702808812312
5415, ZUXSES , CC1=CCC(COC(=O)c2cc(cc(c2)N(=O)=O)N(=O)=O)C2C3CCC=CCC(O3)C12 , P212121 ,0,0,1.3926935522200001,0.696888583848
5416, SALMIC , C1CC2C=CC=CC3ON=C(C1)C23 , P21/c ,1,0,1.26318804372,0.7198663324979999
5417, JERHOD , OCC(O)C(O)C(O)C(O)CN(=O)=O , P61 ,0,0,1.56953080274,0.72191276526
5418, WAXJUC , NC(C(N)c1cccc(c1)N(=O)=O)c1cccc(c1)N(=O)=O , P21 ,0,1,1.4239987114200001,0.693762326882
5419, POFVIR , CC1C(N(C)C(CC1=NOC(=O)Oc1ccccc1)c1ccccc1)c1ccccc1 , P21/c ,1,0,1.28154618359,0.6846384253319999
5420, WEPCEC , COc1ccc(cc1)N1C(c2ccccc2)C2=C(N(c3ccc(OC)cc3)C(=CC2c2ccc(cc2)N(=O)=O)C(=O)OC)C1=O , P212121 ,0,0,1.3524079827700002,0.685721153846
5421, UDEQEB , O=N(=O)N(CC(N(=O)=O)(N(=O)=O)N(=O)=O)C1=NON=C1N(CC(N(=O)=O)(N(=O)=O)N(=O)=O)N(=O)=O , P21/n ,0,0,1.9343342557599998,0.736927857563
5423, LIVSIS , CC1(C)OC2CON3C(CCOC3=O)C2O1 , P21/c ,1,0,1.4030930207700003,0.686686686687
5424, VOPZEF , CC1=CC=CN2C1=CC(=C2N(=O)=O)C , P21/a ,0,1,1.41490516989,0.717153160509
5425, ZELVAN , O=C1OC(N(C(=O)c2ccccc2)C21CC1CCCCN1O2)c1ccccc1 , P21 ,0,0,1.32381601528,0.681641628146
5426, WEGJOH , C1C=CC(ON1c1ccccc1)N1N=Nc2ccccc12 , P21/n ,0,0,1.3164922132999999,0.678266202091
5427, TICVUX , CC1(C)N([O])C(=[N+]([O-])C1(C)C)c1ccc(COc2cc(cc(c2)C2=[N+]([O-])C(C)(C)C(C)(C)N2[O])C2=[N+]([O-])C(C)(C)C(C)(C)N2[O])cc1 , P21/a ,0,0,1.28165658828,0.668124200008
5428, JOCJAM , CC1CCC(C)C1(O)C1=C(C)ON=C1C , P21/n ,0,0,1.09789285429,0.538787059295
5429, YEZQEB , CON1C(CC(=CCCCCC1=O)C)c1ccccc1 , P212121 ,0,0,1.1909050664899998,0.676249268696
5430, JAXTAE01 , O=N(=O)c1cccc(C=NN=Cc2cccc(c2)N(=O)=O)c1 , P21/n ,0,0,1.50241663991,0.727810650888
5432, AKAYOB , CC(C)=NOC1(ON=C(C)C)N=C(N)C2(C#N)C(C(=O)C(C)(C)C)C12C#N , P21/c ,1,0,1.2129502248000001,0.644208144796
5433, SAHPUO , ON=C1CCCCCCCCCCC1=O , P-1 ,1,1,1.18794766343,0.695893479343
5434, IBOSAU , COc1ccc(cc1)C1=Nc2ccccc2NC(C1)c1ccc(cc1)N(=O)=O , P-1 ,1,1,1.36063411607,0.6918586789550001
5435, NINQEI , CNC1=C(C(c2ccc(cc2)N(=O)=O)C2=C(CCCC2=O)O1)N(=O)=O , P-1 ,1,1,1.4796280089899998,0.708048012593
5436, MOGHOH , C=CCCC(=NNc1ccc(cc1N(=O)=O)N(=O)=O)C1=CCCC2(CCCC2)C1 , P-1 ,1,1,1.32006889714,0.695386834586
5437, CIPQID , CC(C)(C)C1=Nc2ccccc2C(O1)=C(c1ccccc1)c1ccc(cc1)N(=O)=O , P21/c ,1,0,1.26869176765,0.667511400164
5438, UREAOH01 , NC(=O)NO , P21/c ,1,0,1.6299173256000001,0.741688311688
5439, YULXAF , CN1C2=C(C(=O)c3ccccc13)C(=C(O2)c1ccccc1)c1ccc(cc1)N(=O)=O , P21/c ,1,1,1.39081555026,0.6919815743350001
5440, JEXBEW , CCC(COC(=O)c1ccc(cc1)N(=O)=O)(C#N)C(C)C(=C)OCc1ccccc1 , P21/c ,1,0,1.28049493415,0.673842949267
5442, XAZKOY , CC1(C)OCC(O1)C1CC(=O)ON1Cc1ccccc1 , P21 ,0,0,1.2614486064100001,0.6671939619520001
5443, VOQKES , Cc1ccc(cc1)C(C)=NNc1ccc(cc1N(=O)=O)N(=O)=O , P21/c ,1,0,1.4538414802700002,0.7178944512279999
5444, YIQTEY , CC(=NOCCON=C(C)c1ccccc1O)c1ccccc1O , P21/n ,0,1,1.2890210848,0.672302844717
5446, ZOGQAN03 , O=N(=O)c1ccc(Cc2cccc(n2)c2ccccn2)c(c1)N(=O)=O , P21/c ,1,0,1.46015271268,0.707558708415
5447, KUNDOM , COc1cccc2C(CCc12)=NO , P21/n ,0,0,1.33271563763,0.7097710028499999
5448, UYIZOT , CC(C)(C)c1ccc(cc1)C(C(c1ccc(cc1)C(C)(C)C)N(=O)=O)N(=O)=O , P21/c ,1,0,1.1127954984100001,0.708887270078
5449, ZELTOZ , CN1OC2(CC1c1ccccc1)N(C(OC2=O)c1ccccc1)C(=O)c1ccccc1 , P-1 ,1,1,1.26630086272,0.654439581633
5453, CUPBEV , CCC(C(Nc1ccc(C)cc1)c1ccccc1)N(=O)=O , R-3 ,1,0,1.1680248118899998,0.638418545431
5454, BUYZAW , O=NN1CN2CN(C1)CN(C2)N=O , P21/a ,0,0,1.51471506743,0.727478954364
5456, ZATKUA , CCNC1=CC(=O)C(C=C1C)=NO , P21/n ,0,0,1.3444728163,0.7209475359909999
5458, GOKKOG , CC(C)(C)N([O])c1ccc(cc1)N(c1ccc(cc1)N([O])C(C)(C)C)c1ccc(cc1)N([O])C(C)(C)C , Cc ,0,1,1.1898257088200002,0.660776601408
5459, WANSEL , COCCOC1N(=C(CC1(C)C)C=Cc1ccccc1)[O] , P21/n ,0,0,1.17979938491,0.659873046597
5460, SOMZAW , COC(=O)C1(C(N(OCC1=Cc1ccccc1)c1ccccc1)c1ccccc1)C(=O)OC , P-1 ,1,1,1.3084569406,0.676724137931
5464, BIDJON , CNC(=O)N(C)N=O , P21/a ,0,1,1.37974258523,0.688421052632
5465, YUXDEC , CC1CCCC(ON2C(C)(C)CCCC2(C)C)C1=O , P212121 ,0,0,1.14142214609,0.6840149999999999
5466, BUWFUU , CC1(C)CC(=O)C(=C(C1)Nc1ccccc1)N=O , C2/c ,1,0,1.27197481155,0.68920251637
5467, DOJHUG , COCOC1CCC(O)C(O)C1OC(=O)c1ccc(cc1)N(=O)=O , P212121 ,0,0,1.4100430323299997,0.688097009082
5469, MFCBXB , CC1=NON(=C1C(N)=O)[O] , C2/c ,1,1,1.5376218741999998,0.6904279279279999
5470, TECYAD , CCOC(=O)C1CCCCCCCCCC(=NO)C1=O , P-1 ,1,1,1.22006647029,0.688988095238
5471, RIXQOG , CC1(C)C2CCC3(O)C(C(CCC4CC(=O)C53OC45)OC(=O)c3cc(cc(c3)N(=O)=O)N(=O)=O)C12 , P212121 ,0,0,1.42028595838,0.6963195914810001
5472, JAKCOO , Cc1ccnc(N=Nc2nccc(C)c2N(=O)=O)c1N(=O)=O , P21/c ,1,0,1.50924264603,0.7047951176980001
5475, KETYEO , CC1=CC(=O)Oc2cc(c(O)c(c12)N(=O)=O)N(=O)=O , P-1 ,1,1,0.8264424838150001,0.70747648653
5476, KOYLIT , None , Pcab ,0,0,1.58873842229,0.7128959981849999
5478, FUCTUS , COc1ccccc1NC(=O)C(=NNc1ccc(cc1OC)N(=O)=O)C(C)=O , P-1 ,1,1,1.43677782394,0.7088952200059999
5479, DEQZOR , CCOC(=O)C1(CCC(=NO)C1=C(c1ccccc1)c1ccccc1)C(=O)OCC , P-1 ,1,1,1.27769427254,0.675885304659
5480, YAXZII , [O]c1ccc(cc1C=[NH]C12CC3CC(CC(C3)C1)C2)N(=O)=O , P-1 ,1,1,1.3669761547900001,0.7065281030439999
5481, XAZJOA , COc1ccc(cc1)[N+]1=NOC(=C1C1=NOC(=N1)CN1N=NC2C1C(=O)N(C2=O)c1ccccc1)[O-] , P-1 ,1,1,1.4479558341799998,0.6690435306920001
5482, RAJJIX , CON=CC(=O)C1=NC=CN1OC , Pca21 ,0,0,1.40667365756,0.7065875664319999
5484, ZEDMAZ , Cc1cccc(c1)C1=NOC(=N1)C1=CC(=O)Oc2ccccc12 , P-1 ,1,1,1.19668512948,0.593322649573
5485, IDOHUF , CC1CCC(C(C)C)C(C1)(N=Nc1ccc(cc1N(=O)=O)N(=O)=O)N(=O)=O , P21 ,0,0,1.35219209162,0.66833729709
5486, SECSOK , CC(C)(C)C1=NN(C(=C1)N)c1cccc(c1)N(=O)=O , P21/c ,1,0,1.27815442299,0.662850224836
5487, HOGYAE , CC1C(N(C2=CC(=NO2)c2ccccc2)C(=O)N1C)c1ccccc1 , P212121 ,0,0,1.31605806678,0.697025675474
5488, UCOLII , O=C(NNC(=O)c1cc(cc(c1)N(=O)=O)N(=O)=O)c1ccncc1 , P21/n ,0,0,1.65380533093,0.749679075738
5489, YANREM01 , NC1=[NH+]N=NN1[N-]N(=O)=O , Pna21 ,0,0,1.8350103858700002,0.732391278934
5490, WUMKOG , Cc1ccc(cc1)C(=O)ON=C(CCN1C=CN=C1)c1ccccc1 , P21/c ,1,0,1.2637256344399999,0.6723248555570001
5491, VOQQAU , CC(COCOCC(C)(N(=O)=O)N(=O)=O)(N(=O)=O)N(=O)=O , C2/c ,1,1,1.5186724679199999,0.667975951064
5492, JEKHOX , OC1(C(=O)c2ccccc2C1=O)C(=CC1=COC=C1)N(=O)=O , P21/m ,0,1,1.46228944279,0.6790532171250001
5494, JUTGEK , O=N(=O)CCN(=O)=O , I41/a ,1,0,1.6203476378600001,0.720348152627
5495, MNPYDO12 , Cc1cn([O])ccc1N(=O)=O , P212121 ,0,0,1.53053950127,0.7292502492980001
5496, WACGOW , O=N(=O)c1cc(c(Cc2c(cc(cc2N(=O)=O)N(=O)=O)N(=O)=O)c(c1)N(=O)=O)N(=O)=O , P21/n ,0,0,1.74258648038,0.72158808933
5497, RUVSAC , COc1ccc(cc1OC)N(=O)=O , P21/c ,1,1,1.3866998329799998,0.685208442351
5498, YOMYII , CC1(C)N([O])C(=[N+]([O-])C1(C)C)c1ccccc1O , Pbca ,1,0,1.2780157234899998,0.6915005503239999
5500, POHVUE , O=N(=O)c1ccc2NC3=C(CC(=Nc4ccccc34)NCc3ccccn3)c2c1 , P21/c ,1,0,1.349103945,0.669601505605
5501, SUTTUY , O=C(OCCC1CC1c1ccc2ccccc2c1)c1ccc(cc1)N(=O)=O , P21/c ,1,0,1.36569649586,0.71824541568
5502, JULHED02 , O=N(=O)c1ccccc1C=NN=Cc1ccccc1N(=O)=O , P21/c ,1,0,1.5053579673100002,0.725571725572
5504, YERBIG , COC(=O)C12OC(C)(CCC1=NO)CC2O , P21/c ,1,0,1.38994211843,0.690532879819
5505, NUYQEE , CC(=O)OCN(COC(C)=O)N(=O)=O , P21/c ,1,0,1.49097739357,0.7070764119600002
5506, QOXRAW , CC1(C)C(=CC(=NO)c2ccccc2)C2(CC(=NO2)c2ccccc2)C(C)(C)C1(C)C , Pbca ,1,0,1.1705911729,0.646294090398
5508, LOJVIR , CCOC(c1ccc(cc1)C(C)C)C(=NNc1ccc(cc1N(=O)=O)N(=O)=O)c1ccc(cc1)C(C)C , P-1 ,1,0,1.26926085911,0.690964590965
5510, HACXIT , CC1ON2C(COC(=O)C3CCCCC3COC2=O)C=C1 , C2/c ,1,0,1.3213521163600002,0.678421668795
5511, PNTSAN , COc1ccc(cc1)N=O , P21/c ,1,1,1.3630445144299999,0.712777458309
5512, GAKWAS , OC(NN1C=NN=C1)c1ccc(cc1N(=O)=O)N(=O)=O , Pccn ,1,0,1.6368575232,0.724421973143
5513, JECVUI , CNC(=O)ON(C(C)=O)C(=O)NC , P21/c ,1,0,1.45677544992,0.718607549858
5514, LIJZUZ , CN(C)c1ccc(cc1)N=C(C=N([O])c1ccccc1)c1ccccc1 , Pbca ,1,0,1.25720339592,0.689223057644
5516, LOLBUK , [O-][n+]1cccc2ccc3ccc4ccc5ccc6ccccc6c5c4c3c12 , P21/c ,1,0,1.3633577369299998,0.70757918552
5517, JOYRAQ , C=CCN1C(=O)c2cccnc2N=C1c1ccc(cc1)N(=O)=O , Pbca ,1,0,1.39948644744,0.697633104337
5518, FEBFIB , CC1(C)CCCC(C)(C)N1OC(=O)C(OOC(C(=O)ON1C(C)(C)CCCC1(C)C)(c1ccccc1)c1ccccc1)(c1ccccc1)c1ccccc1 , C2/c ,1,0,1.19484955528,0.663411517406
5520, BIZDIY , CCN(CCOC(=O)C=C)c1ccc(cc1)N=Nc1ccc(cc1)N(=O)=O , P212121 ,0,0,1.3610703821799999,0.706609165451
5521, SEFYEH , OC(=O)c1cccc(c1c1c(cccc1N(=O)=O)C(O)=O)N(=O)=O , Pbcn ,1,1,1.6492321526700002,0.709947508719
5522, MAGVOH , CC(=O)OC1C2CCC(C(OC(C)=O)C1OC(C)=O)N(O2)C(=O)OC(C)(C)C , P21/c ,1,0,1.35017822189,0.689759530792
5524, LOJGOI , CC1(C2N(CCc3ccccc23)C2(C1c1ccccc1)C(=O)N(Cc1ccccc1)c1ccccc21)N(=O)=O , P21/a ,0,0,1.2754750152,0.662785279142
5525, WEHLAX , CC1(C)NC(=[N+](O)C1(C)C)C1=NNC(=C1C(O)=O)C(=O)[O-] , P21/n ,0,0,1.42619869641,0.686194302411
5526, QUMKOZ , CC(C)(C)c1cc(c2Oc3cc(Oc4c(O)c(Oc5cc(Oc1c2O)c(cc5N(=O)=O)N(=O)=O)c(cc4C(C)(C)C)C(C)(C)C)c(cc3N(=O)=O)N(=O)=O)C(C)(C)C , P-1 ,1,0,1.3002231422,0.670978796316
5527, FAWGAN , O=C1CC2C(C(c3ccccc3)C2(CO1)N(=O)=O)c1ccccc1 , P212121 ,0,0,1.37062092248,0.7036364173459999
5528, GOHDEO , COC(=O)C(C(Cc1ccc(C)cc1)CN(=O)=O)C(=O)OC , P21/c ,1,1,1.3448692009999998,0.698034550228
5531, QUSZOT , CCCCC1=CC=C2C3C(CON3C(C)c3ccccc3)CN12 , P212121 ,0,0,1.1574899803,0.652120424518
5532, PUHFEE , OC1(CN(=O)=O)C(=O)Nc2ccccc12 , Pbca ,1,0,1.53334876494,0.7129800337350001
5533, PAWVIV , O=N(=O)OC12CC3N(C(C1)N(C(C2)N3N(=O)=O)N(=O)=O)N(=O)=O , Cc ,0,0,1.8397584955900002,0.7499936216349999
5534, UGAHOZ , CC(=C)C1CCC(CC1)(OC(=O)c1ccc(cc1)N(=O)=O)C#N , P-1 ,1,0,1.41855921766,0.693795093795
5535, VADWAY , CCCCCC1OC(=O)C(=C2CCC(CCCC)O2)C(=O)C1OC(=O)c1ccc(cc1)N(=O)=O , P21 ,0,0,1.2600593891,0.650988262483
5536, XOBQIP , COC(=O)COc1ncnc2ON=C(c3ccccc3)c12 , Pbca ,1,0,1.5059111111599999,0.730501754742
5537, QABBIG , COC(=O)CN([O])=Cc1ccccc1 , P21/c ,1,0,1.3504903657700003,0.710512396694
5538, MALHEM , CC(=O)C1ON=CC1C1COC(C)(C)O1 , P212121 ,0,0,1.3003668314899999,0.685247524752
5540, XEWQEV , NC1(CC(=O)N(OCc2ccccc2)C1=O)Cc1ccccc1 , P21 ,0,0,1.3094039984499999,0.6883998354590001
5542, UYECOS , CC(=NO)C(C)=NNC(=O)C1=CC=CO1 , P-1 ,1,0,1.42383868108,0.7126286412
5543, SABCOP , None , Cmcm ,1,0,1.39005830484,0.735708393644
5544, GACVEN , COC(=O)C1(CC(=NO1)c1ccccc1N)C(OC(C)=O)C1=C(C)ON=C1c1ccccc1 , Pna21 ,0,0,1.31822243353,0.659409797997
5546, MIWRAN , CC(C)(C)OC(=O)N1C(COC1(C)C)C1=[N+]([O-])C(C)(C)C(C)(C)N1[O] , P212121 ,0,0,1.2281491511700002,0.673112228608
5547, JOTRUH , O=N(=O)C1=NN(CCN2N=C(C(=C2N=[N+]=[N-])N(=O)=O)N(=O)=O)C(=C1N(=O)=O)N=[N+]=[N-] , P21/c ,1,0,1.8189335844599999,0.737072261986
5548, CUXVEW , None , P-1 ,1,1,1.28447502902,0.7173168251340001
5550, WOFJUX , O=N(=O)CC(C(C(CN(=O)=O)c1ccccc1N1CCCCC1)N(=O)=O)c1ccccc1N1CCCCC1 , P-1 ,1,1,1.3388843935899999,0.7007030067059999
5551, KEKTIF , CC1=NOCc2ccccc2N1 , Pbca ,1,0,1.35202349898,0.723802612482
5553, BAYJUJ , COc1ccc(cc1)[N+]([O-])=C1COOC1(C)c1ccccc1 , P21 ,0,0,1.31611564601,0.6833412849070001
5554, VUXXAN , CC1=NN=C(N1C(=NO)c1ccccc1)c1ccccc1 , P21/n ,0,0,1.20830135386,0.633278846154
5556, BIHVOE , O=N(=O)c1ccc(OCCOc2ccc(cc2N(=O)=O)N(=O)=O)c(c1)N(=O)=O , C2/c ,1,1,1.65700773648,0.7273567740350001
5557, MIKTEG , CN(CN1N=NC(=N1)N(=O)=O)N(=O)=O , P21 ,0,0,1.7345245051400002,0.734274193548
5558, POJTOX , C1OC(=NC1C1=NOC(C1)c1ccccc1)c1ccccc1 , P21/n ,0,0,1.36747230269,0.71724654028
5559, AQECII , CC12CCC1C(CCOC(=O)c1ccc(cc1)N(=O)=O)C(=O)O2 , C2/c ,1,0,1.4213393607700002,0.7121731601729999
5562, KICCIK , COC(=O)CCC1(CCC(=O)OC)c2ccccc2c2ccc(cc12)N(=O)=O , P21/c ,1,0,1.30284611248,0.66179572401
5563, GETHET , CC1(C)CC2(CCOC(=O)c3ccc(cc3)N(=O)=O)OCC3CC3C32CC13 , P21/c ,1,0,1.3202562347,0.705652331401
5564, GALTIY , CCOC(=O)C(C)C1CCC(C(C1N(=O)=O)c1ccc(OC)cc1)N(=O)=O , P212121 ,0,0,1.34511878981,0.694393677869
5565, FICDOK01 , COC1=C(N=CN1C)N(=O)=O , P21/c ,1,1,1.54579652625,0.740374942844
5566, RUZZET , Cc1ccnc(c1)c1cc(C)cc[n+]1[O-] , P21/n ,0,0,1.28152439499,0.681657066903
5568, BUKTUW , O=N(=O)c1ccc(c(OC2CCCCO2)c1)N(=O)=O , P21/n ,0,0,1.47345874898,0.698571428571
5570, HESVIK , CC1=CC(C(c2ccccc12)C(N(=O)=O)(N(=O)=O)N(=O)=O)N(=O)=O , P21/c ,1,0,1.62612536725,0.731511716988
5571, FOVNOT , CC(=O)C(=NNc1ccccc1N(=O)=O)C(=O)Nc1ccccc1 , P21/n ,0,0,1.42536335695,0.71436445264
5572, MIBFOT , O=N(=O)c1cccc(C=NCCCCN=Cc2cccc(c2)N(=O)=O)c1 , P21/c ,1,0,1.39439087692,0.7148476454289999
5573, LEFKOY , COC(=O)c1cccc(c1C(O)=O)N(=O)=O , P212121 ,0,0,1.54083724311,0.705072080307
5574, XIMJEI , CC1OC(COC(=O)c2ccc(cc2)N(=O)=O)C(C)C1OC(=O)c1ccc(cc1)N(=O)=O , P21 ,0,0,1.451971318,0.7112116197830001
5575, ZESCEF , CC1(C)N([O])C(=N([O])C1(C)C)c1ccc(OCC#CC#CCOc2ccc(cc2)C2=N([O])C(C)(C)C(C)(C)N2[O])cc1 , C2/c ,1,1,1.2971857104,0.6220211936410001
5577, NIZCAA , Cc1cccc(Cc2ccc(cc2N(=O)=O)N(=O)=O)n1 , P21/c ,1,0,1.42157791355,0.692361901664
5579, MOBNIA , COC(=O)C12C(CCCC1=O)CC(=O)C1C3CCC(OC(=O)c4ccc(cc4)N(=O)=O)C3(C)CCC21 , P21 ,0,0,1.1628999163200002,0.588022165388
5582, JEMWII , COc1ccccc1C(c1ccccc1OC)=C(N(=O)=O)N(=O)=O , C2/c ,1,1,1.41849704268,0.6913736878669999
5584, MENTCN , COC(=O)C1C2C(OC(=O)c3ccc(cc3)N(=O)=O)C3(CCC2(C)C)CC13C , P21/n ,0,0,1.3264943585200002,0.6871794102650001
5585, MEBNOY , COC1=CCON(C2OCC3OC(C)(C)OC23)C1c1ccccc1 , P212121 ,0,0,1.32187823956,0.6935686918449999
5586, QEVLEL , O=C1C(CCc2ccccc12)=Cc1cccc(c1)N(=O)=O , P-1 ,1,1,1.42625432535,0.731490952006
5587, XERJIN , CC1=CCC2C(=O)CC(CC1C2(C)C)OC(=O)c1ccc(cc1)N(=O)=O , P-1 ,1,1,1.33199364463,0.700156678418
5588, MULMUC , CNC(=O)c1ccc2ccccc2n1[O] , P21/c ,1,0,1.4480366866999999,0.7346805736640001
5589, HEYJIH , Oc1ccc(cc1)N=CC1=CC=C(O1)N(=O)=O , P21/n ,0,0,1.53630251662,0.73886252354
5590, PENGOG , CCOC(=O)N1CC2C(CO1)C(C1OCCO1)C2(C)C , P-1 ,1,1,1.29044105721,0.688179347826
5591, QUWROQ , CCOC(=O)C1CC(ON2C(C)(C)CCCC2(C)C)C(=O)N1C(=O)OC(C)(C)C , P212121 ,0,0,1.2228708767799998,0.680010380623
5592, DIWHIB , O=C(OCC(N(=O)=O)(N(=O)=O)N(=O)=O)OCC(N(=O)=O)(N(=O)=O)N(=O)=O , Pbca ,1,0,1.97480729842,0.7634034930589999
5593, HACHUQ , CC1(C)Cc2ccccc2C(=N1)CC1C(C(Oc2ccccc12)c1ccccc1)N(=O)=O , P-1 ,1,1,1.26955481973,0.6645548387100001
5594, GEMFEJ , OCC1OC(C(O)C1O)N1C=C(C(=O)NC1=O)N(=O)=O , P212121 ,0,0,1.6374608446099999,0.7073385264309999
5595, GOBXEC , COC(=O)C1=CC(=NO1)c1ccccc1 , P21/c ,1,1,1.3915415494299999,0.697974131214
5596, OXEJUX , O=N(=O)c1cccc(c1)C1O[N+](=C2CCCCCC12)[O-] , P21/c ,1,0,1.43360413999,0.722701201693
5597, UHISOT , CON=C1CCCCC21CCCCC2=NOC , P21 ,0,1,1.1850497149600001,0.663126639069
5600, GARDIO , COc1ccc(cc1)C1CC(=NOCc2ccccc2)C(C)C(N1C)c1ccc(OC)cc1 , P21/n ,0,1,1.1836757602399999,0.6456203007519999
5601, UPURAA , ON=Cc1ccc(cc1)N(c1ccccc1)c1ccc(cc1)c1cc(nc(c1)c1ccccn1)c1ccccn1 , P-1 ,1,1,1.29149227463,0.669423076923