ID,name,smiles,space_group,inversion_symmetry,beta_packing,density,packing_coefficient
701, MAWSAE , CC1CCCC(C)C1=NNc1ccc(cc1N(=O)=O)N(=O)=O , P21/c ,1,0,1.35793758902,0.687931854954
702, YOFVIA , CC1(C)CC(CC(C)(C)N1[O])NC(=O)CN1CC2CC(C1)C1=CC=CC(=O)N1C2 , P212121 ,0,0,1.2241727745200002,0.6712041734540001
703, ADAMEY , CN1N(c2ccccc2)C(=O)C(=C1C)N=Cc1ccccc1N(=O)=O , P212121 ,0,0,1.35653650276,0.6867945984360001
704, LENWUY , COc1cc(cc(OC)c1OC)C1C(C2CON=C2c2cc3OCOc3cc12)C(=O)OCc1ccccc1 , P212121 ,0,0,1.35154483884,0.6764693381910001
707, UPAJIF , O=N(=O)c1cccc2cccnc12 , P21/c ,1,1,1.45435368772,0.702546175519
709, AGUQUO , CC(COC(=O)c1ccc(cc1)N(=O)=O)(OC(=O)c1ccc(cc1)N(=O)=O)C(C=C)c1ccccc1 , P-1 ,1,1,1.3427433720700002,0.669425798258
710, YOHBIH , COc1ccc(cc1)C1OC(C(OC(=O)c2ccc(cc2)N(=O)=O)C1C)c1ccccc1 , P-1 ,1,1,1.3288808189299999,0.6767827426809999
711, JENHIT , COC(=O)C1=C(C)NC(=C(C(=O)OC)C1(C)c1cccc(c1)N(=O)=O)C , P21/c ,1,0,1.31492080845,0.6653887930479999
712, LESTUA , CC(C)(C)C1=CC(=NO1)NN=C1C(=O)Oc2ccccc2C1=O , P21/c ,1,0,1.35817556896,0.669497282609
713, JOGGUH , CC1CCC(OCc2cc(cc(c2)N(=O)=O)N(=O)=O)O1 , P21/n ,0,0,1.39048037242,0.620900145773
714, NOHGIC , CCOC(=O)C1(C(CCC1C(CC)C(=O)c1ccccc1)CON1C(C)(C)CCCC1(C)C)C(=O)OCC , Pbca ,1,1,1.21450786874,0.689310176125
715, IFUHAV , Cc1ccc(C(O)=O)c(c1)N(=O)=O , C2/c ,1,1,1.47721579592,0.6920593494760001
716, LIXWAS , COc1ccc(cc1)C=NNc1ccccc1N(=O)=O , P21/c ,1,0,1.36235001726,0.68537037037
717, RASZAM , CC(=O)ONc1ccccn1 , P21/c ,1,0,1.3330333157799998,0.6791071428569999
718, KEDKAG01 , CC(C)c1cccc(C(C)C)c1N=C(C)c1ccccn1[O] , P-1 ,1,1,1.19631934671,0.691824013997
720, FEVVUA , Cc1ccc(cc1)C1=NOC2C3N(CCc4c3ccc3ccccc43)C(=O)C12 , P21/c ,1,0,1.34991883454,0.7018386117059999
721, EINACN10 , CCOc1ccc(NC(=O)C=NO)cc1 , P21/c ,1,0,1.34091026958,0.694131826742
722, XOLRUN , O=N(=O)c1ccc(cc1)C1Nc2ccccc2C2=Nc3ccccc3N12 , Pca21 ,0,0,1.36435722704,0.6732846907
723, WOVZEO , NC(=NO)c1ccc(cc1)N1c2ccccc2c2ccccc12 , P21/c ,1,0,1.0969232174899999,0.559549563147
724, SINRAI , Oc1ccc(cc1N(=O)=O)C(=O)C1CCCCC1 , P1121/b ,0,0,1.38322699447,0.695733994532
725, QOHROV , CC1(C)CN2OC(=O)N(c3ccccc3)C2(C)C1 , P-1 ,1,1,1.2955083825799998,0.6970137420720001
726, UGICET , C1CC2ON(C(c3ccccc3)C3=C(OC(=C23)C1)c1ccccc1)c1ccccc1 , C2/c ,1,0,1.2596667883200001,0.668096091483
727, GUWCIL , COc1ccc(c(O)c1)C(C)=NO , P21/c ,1,1,1.3437919638999998,0.6865095353210001
728, IKAGEG , CC1(C)COC2(N1)ON(C(c1ccccc1)C12OC1(c1ccccc1)c1ccccc1)C(C)(C)C , P21/n ,0,0,1.18337724174,0.646894358538
729, DAPYIC , CC=CC=CC(=O)N1N=[N+]([O-])c2ccccc12 , P21/c ,1,1,1.3519100717599999,0.6858703239849999
730, OGOSIO , CC1(C)OC(C(O)CO)C(O1)C1CC2CC(C)(C)N1O2 , R3 ,0,0,1.25919729109,0.670205698969
731, RUFSOB , Oc1cccc(C=NNc2ccc(cc2N(=O)=O)N(=O)=O)c1O , P21/n ,0,0,1.61196172151,0.736200378072
732, MUCDOE , COc1cc(cc(c1O)N(=O)=O)C(C)=O , P21/c ,1,1,1.56612304382,0.748012490506
733, LIJMIB , O=n1ccccc1c1cc(cc(n1)c1ccccn1=O)c1ccccc1 , C2/c ,1,1,1.40181040866,0.713937451437
734, UFIXEM , N#CCC1=CC(=NO1)c1ccccc1 , P21/c ,1,1,1.36829084287,0.715455727794
736, GUHCIW , O=N(=O)c1ccc(cc1)C(=NNc1ccccc1)N=Nc1ccccc1 , P21/c ,1,0,1.3866786363799999,0.7071520264069999
737, VEVLEP , O=N(=O)c1ccc(NCNc2ccc(cc2)N(=O)=O)cc1 , P6 ,0,1,1.1317673182799999,0.543748845799
738, VUSWAI , OC1C2CC3C1N(C(=O)C3C2C(O)=O)c1cccc(c1)N(=O)=O , P-1 ,1,1,1.59361256696,0.741375692463
739, AFEXEP , CCC(=O)Nc1ccc(cc1)N(=O)=O , Pbca ,1,0,1.3834048629,0.690918135484
742, GALGOS , CN(C)c1ccc(cc1)C=C(C(=O)c1ccccc1)N(=O)=O , C2/c ,1,0,1.3038091763500002,0.6908950617280001
743, CAJTAI , CC(=O)C1=C(C=C2C=CC(=CN12)N(=O)=O)c1ccccc1 , Pbca ,1,0,1.36980384187,0.6555394123889999
744, DADBAM , CCC(C(CC1OC(C)C(C)O1)c1ccccc1)N(=O)=O , P212121 ,0,0,1.23611077955,0.678359897678
745, SOYRUU , COC(=O)c1ccc(Nc2ccccc2)c(c1)N(=O)=O , P21/c ,1,1,1.37437971499,0.677764991118
746, TICTOO , Cc1cc(cc2COCc3cc(cc(C)c3c12)N(=O)=O)N(=O)=O , P21/c ,1,0,1.41473409417,0.691046255155
747, OPAGOD , O=C1CC2CCCC3(C1)C2CCCN3C(=O)c1cc(cc(c1)N(=O)=O)N(=O)=O , P21/c ,1,0,1.4384294918399998,0.71026816609
749, UWUPUZ , Cc1ccc2N3C(CC(c4ccc(cc4)N(=O)=O)c2c1)c1ccccc1C3=O , P21/n ,0,0,1.30686300419,0.663974442988
750, BIKZED , CC(C)(C)c1n[n+](c2ccccc2)c2cc3c(cc2n1)C(C)(C)N([O-])C3(C)C , P21/c ,1,0,1.1763970035,0.644480970122
751, JENZAG01 , O=N(=O)c1ccc2OC(=Nc2c1)c1ccccc1 , Cc ,0,1,1.511023359,0.736035491026
752, LANFIR , Cc1cccc(C(=O)NN=Cc2cc(O)ccc2N(=O)=O)c1O , P-1 ,1,1,1.49278122995,0.714381270903
753, PUHWOG , CN1C(=O)C2ON3C4CCCC4CC3C2C1=O , Cc ,0,0,1.35829568836,0.691714324619
754, MIZBED , COC(=O)c1c(O)cccc1c1ccc(cc1)N(=O)=O , P21/c ,1,0,1.4450862568399998,0.706964990138
755, GOHFEQ , CCOC(=O)CC1C(CCC2(C)C(CCC12)OC(=O)c1ccc(cc1)N(=O)=O)OC(C)=O , P21 ,0,0,1.3198101728899998,0.6872369295530001
756, ZIFHUU , CC(CCC=C(C)C)C(C=Cc1ccccc1C(=O)N1CCCC1)C(COCc1ccccc1)OC(=O)c1cc(cc(c1)N(=O)=O)N(=O)=O , P21/c ,1,0,1.28585764,0.688731060606
758, BAZQOJ , CCOC(=O)C(C(=O)OCC)(c1ccc(cc1)N(=O)=O)C(C(=O)OCC)(C(=O)OCC)c1ccc(cc1)N(=O)=O , P21/c ,1,0,1.3417431661700001,0.6539201740439999
759, DORBES , COc1ccc2C=C(NC(=O)C3=NOC4C(O)C=CC(O)C4(O)C3)C(=O)Oc2c1OC , I222 ,0,0,1.19572001222,0.558089673402
760, QOQWUO , Cc1ccc(O)c(c1)C1=NN(C=C1C=O)c1ccc(cc1N(=O)=O)N(=O)=O , P-1 ,1,1,1.51293551579,0.7042472978659999
761, FONYOX , Cc1ccccc1C(CN(=O)=O)C1N=C2C3CCC(C)(C2OC1=O)C3(C)C , P212121 ,0,0,1.21138733988,0.6427140213220001
762, DIKWID , ON1C23CCCCC2NC2CCCCC12ON3 , P21/c ,1,1,1.30584358502,0.713931643775
763, AKUVUX , CCC1C(C(=C(OC(=CC1=O)c1ccccc1)C#Cc1ccccc1)CC)c1ccc(cc1)N(=O)=O , Pbca ,1,1,1.2359764939700002,0.657696228338
764, XILHAE , COC1=C(C(=NNc2ccc(cc2N(=O)=O)N(=O)=O)c2ccccc2)C(=NO1)c1ccccc1 , Pbca ,1,0,1.47006972137,0.7093815592199999
765, QEYWOG , O=C(OC1C2OCCCC2OC(COCc2ccccc2)C1OCc1ccccc1)c1ccc(cc1)N(=O)=O , P21 ,0,0,1.27298652944,0.64760705846
766, OXAYAO , NC1=NON=C1N([O])=NC1=NON=C1N=NC1=NON=C1N=N([O])C1=NON=C1N , P21/n ,0,0,1.7692466827900002,0.706303862727
767, GAVKOD , CC1=NON(=C1N)[O] , P21/n ,0,0,1.4707994477500002,0.679887244538
768, ETIYUB , COc1ccc(cc1)C1=NOC(C1)C=CC1=CC(=NO1)c1ccc(C)cc1 , Pca21 ,0,0,1.2743388702,0.6803363787379999
770, QADBAY , O=C1CCC2C1C2N(=O)=O , P21/c ,1,0,1.4312138133599999,0.705322128852
771, VIPPEQ , CC12CCC(CC1CCC2=O)OC(=O)c1ccc(cc1)N(=O)=O , P212121 ,0,0,1.31808007068,0.674595521269
772, ZUPNAB , O=N(=O)c1ccc(cc1)N=NN=C1N(Cc2ccccc2)c2ccccc2N1Cc1ccccc1 , P-1 ,1,1,1.3630815653200001,0.693307405607
774, MAYCEW , COC(=O)C1=C(C(=O)OC)C(=NO1)C(=O)OC , P21/n ,0,0,1.4537687432700002,0.677214925995
775, MEDLIS , CN(C)c1ccc(cc1)N=Cc1cc(ccc1O)N(=O)=O , C2/c ,1,1,1.40246028106,0.720691936008
776, PUKPOB , CN1CN(Cc2ccccc2)CC(=C1NCc1ccccc1)N(=O)=O , R-3 ,1,0,1.29997023714,0.687594354903
777, OMOLOR , O=C1N(c2cccc(c2)N(=O)=O)C(=O)c2ccccc12 , Pn ,0,0,1.5359904503900002,0.7332908395559999
778, NAVVIP , CC1(C)C(=O)C(=C2C(=O)C(C)(C)N(=C2c2ccccc2)[O])C(=N1[O])c1ccccc1 , P21/c ,1,0,1.25739709781,0.656789643174
779, ZUVQEO , CC1Oc2cccc(c2c2c(OC1C)cccc2N(=O)=O)N(=O)=O , P212121 ,0,0,1.41283990467,0.668775527764
780, ZORYIO , O=C1CCC(OC(=O)c2cc(cc(c2)N(=O)=O)N(=O)=O)C2C3CC(C=C3)C12 , P212121 ,0,0,1.5015608351899998,0.7130810657600001
781, PAYWEU , CC1(C)C=C(C#Cc2ccc(cc2)N=Nc2ccc(cc2)C#CC2=CC(C)(C)N([O])C2(C)C)C(C)(C)N1[O] , P-1 ,1,1,1.1969624868700002,0.66473243069
783, HAWSOO , Cc1ccc(C)c(c1N(=O)=O)N(=O)=O , P21/n ,0,0,1.4209267908399998,0.686082995951
784, TMPPIO03 , CC1(C)CCCC(C)(C)N1[O] , Fdd2 ,0,0,1.05177348015,0.6658108686349999
786, PAVZIX , Nc1ccc(cc1)C(=O)NN=Cc1ccccc1N(=O)=O , P21 ,0,0,1.54868286477,0.759072361436
787, GATTEA , [O-][N+]1=C(c2ccccc2)C(=C(C#N)C#N)c2ccccc12 , P21/c ,1,0,1.35084794982,0.687572352741
788, FECMEG , CC(C)CC(CN(=O)=O)C1(CCOC1=O)C(C)=O , P212121 ,0,0,1.24449624215,0.656250699747
790, ITOSIU , CC(=O)C(O)C(O)c1ccc(cc1)N(=O)=O , P212121 ,0,0,1.47343110669,0.7278368794329999
792, HUDJEW , O=N(=O)c1ccc(cc1)C=Nc1ccc(Oc2ccc(cc2)N=Cc2ccc(cc2)N(=O)=O)cc1 , P-1 ,1,1,1.3801666303,0.687575232317
794, CIMKIS , O=N(=O)c1ccc(cc1)N=NC12CCCCC1(CCCC2)N=Nc1ccc(cc1)N(=O)=O , P21/c ,1,0,1.3343752973899998,0.6969115858949999
795, HUHKOM , CON1C(=O)c2ccccc2C(=O)C1(O)c1ccccc1 , P212121 ,0,0,1.2908090572700002,0.640117107137
797, PUQBUA , COC(=O)C1(C#N)C(CCC(N(=O)=O)C21C(=O)N(c1ccccc21)C(c1ccccc1)(c1ccccc1)c1ccccc1)CC(=O)c1ccccc1 , P212121 ,0,0,1.34042429623,0.68950579062
798, MICMAM , CCCNc1ccc(cc1N(=O)=O)N(=O)=O , P21/c ,1,1,1.44310626095,0.702106142549
800, TIPHIL , OC(=O)c1c(cccc1N(=O)=O)N(=O)=O , P212121 ,0,0,1.72741222491,0.73356440281
805, NERKOL , CC(C)N(C=CC1=[N+]([O-])C(C)(C)C(C)(C)N1[O])C(C)C , Pbca ,1,0,1.09273905888,0.6378283873939999
806, YAPZEU , CC12CC3=C(ON=C3)C=C1CCC1C2CCC2(C)C1CCC2(O)C#C , P212121 ,0,0,1.23480177548,0.693639549754
808, GIHSOF , CCOC(=O)N1C2ON(C(C3C(C)C(=O)N13)C(=C2)C)C(=O)c1ccccc1 , P21/n ,0,1,1.3449290132,0.68348904506
809, MUKCAX , OC1=NNc2c1cccc2N(=O)=O , P21/n ,0,0,1.6493043697,0.7369281045749999
810, NIBZAL01 , O=Cc1ccccc1N(=O)=O , P21 ,0,0,1.47248049312,0.7278162511540001
811, BIHLAI , [O-][N+]1=NN(c2ccccc2)c2ccccc12 , Pbca ,1,0,1.4376607276499997,0.725398724083
813, WERVEU , NC(=O)NN=CC1=CC=C(O1)N(=O)=O , P21/a ,0,0,1.5712389437,0.705348837209
814, BOFDAB , CCOc1cc(c2cc(C)c(OCC)c(c2)N(=O)=O)c(cc1C)N(=O)=O , P21/c ,1,0,1.33048738437,0.682346938776
815, XEGDIX , CCOC1CC(CO1)=Cc1ccc(cc1)N(=O)=O , P-1 ,1,1,1.31403335829,0.677748917749
816, SALMAU , C1CC2Cc3ccccc3C3=NOC(C=C1)C23 , P21/n ,0,0,1.28962786411,0.690327097865
817, WODFEB , O=N(=O)c1ccc(cc1)C(C1=CC=CN1)=C1C=CC=N1 , Pbca ,1,0,1.3294796746100002,0.673337919455
818, BAQDAA , CC(NC(=O)C1Cc2ccccc2C[N+]1([O-])Cc1ccccc1)c1ccccc1 , P212121 ,0,0,1.23752622675,0.673974540311
819, ASUYUI , CC(C)=CCC1CC=CC(OC(=O)c2ccc(cc2)N(=O)=O)C1(C)C , P-1 ,1,1,1.2073811036700002,0.657331083274
820, MORCUT , O=N(=O)c1ccc(cc1)C=NNc1cnc2ccccc2n1 , P21/c ,1,1,1.5075162473800001,0.729004329004
821, FUSJAF , O=N(=O)C1=CC2=[N+]([O-])ON=C2C2=C1C=NN2c1ccccc1 , P21/n ,0,0,1.70144299942,0.765452809602
822, YAXQAQ , CCCOc1c2Cc3cc(cc(Cc4cccc(Cc5cc(cc(Cc1ccc2)c5OC)N(=O)=O)c4OCCC)c3OC)N(=O)=O , P21/c ,1,0,1.28179918732,0.6654803628379999
824, YOWLOM , COc1[nH+]c(nc(n1)N(C)C)[C-](N(=O)=O)N(=O)=O , P21/m ,0,0,1.63000156148,0.694885954382
825, HULFOK , CC(C)C1N(C(=O)OC1(c1ccccc1)c1ccccc1)C(=O)C(CN(=O)=O)c1ccccc1 , P21 ,0,0,1.25429808646,0.651312713762
826, RELFOF , Cc1cccc2cccc(c3ccc(cc3)N(=O)=O)c12 , Pbca ,1,0,1.34422571853,0.706404912056
827, IWUROJ , CCCCC1=[N+]([O-])C(O)(Cc2ccccc2)C(c2ccccc2)C1=C(c1ccccc1)c1ccccc1 , P-1 ,1,1,1.22879182466,0.687837235229
830, HUXFAH , CC1(C)N([O])C(=N([O])C1(C)C)c1ccc2NC=Cc2c1 , P21/n ,0,0,1.29640649811,0.69306656832
831, EFUCAK , COc1nc(nc(n1)C(N(=O)=O)(N(=O)=O)N(=O)=O)N1CCCC1 , P-1 ,1,0,1.53808775968,0.709812277212
833, WAXSUL , COC(=O)C1(CC(CO)C(=NO)C1c1ccccc1)C(=O)OC , P212121 ,0,0,1.2787796772799997,0.640117953326
835, CUKSEH , COC(=O)C(Cc1ccc(cc1)N(=O)=O)N([O])=C(c1ccccc1)c1ccccc1 , P21 ,0,0,1.3541332513100002,0.6993602910050001
836, SORYEE , CN(C)c1ccc(c2c(ccc(N(C)C)c12)N(=O)=O)N(=O)=O , Pccn ,1,0,1.47240161347,0.728571428571
837, KEDXUP , CC1=CC(c2ccc(cc2)N(=O)=O)C2=C(O1)c1ccccc1OC2=O , Pbcn ,1,0,1.43026087155,0.693373815328
838, UKEQOR , CC(=O)C(CN1C(=O)c2ccccc2C1=O)C(O)c1ccc(cc1)N(=O)=O , Pcab ,0,0,1.3604470361399998,0.668573041515
839, URODAH , CC1(C)c2ccccc2c2ccc(cc12)N(c1ccc(cc1)N=Nc1ccc(cc1)N(=O)=O)c1ccc2c3ccccc3C(C)(C)c2c1 , P21/a ,0,0,1.2084136086,0.6375801267660001
840, DNBOIM , CC1(C)C2(C)CCC1(CC2=NN(=O)=O)N(=O)=O , P212121 ,0,0,1.32866697235,0.6622303926259999
841, RAJHOZ , CC(Nc1ncc(cc1C)N(=O)=O)c1ccccc1 , P21/c ,1,0,1.30706051619,0.686673955296
842, TNDPAM , O=N(=O)c1cc(c(Nc2ccccc2)c(c1)N(=O)=O)N(=O)=O , P21/c ,1,0,1.56617831057,0.67969204891
843, CESBOS , CC(=O)Nc1ccc(cc1)N=Cc1ccc(cc1)N(=O)=O , Pbca ,1,0,1.43943206556,0.7339181286550001
845, LUCVUC , CC1CCC2(OC1)OC1CC3C4CCC5C(=C(C=CC5(C)C4CCC3(C)C1C2C)N(=O)=O)N , P212121 ,0,0,1.2189217274700002,0.661393208505
846, YONPEW , Cc1ccc(OC(C)(C)C2OCC(CC=CCCC(O)=O)C(O2)c2cccnc2)c(c1)N(=O)=O , P212121 ,0,0,1.27703708386,0.6804873883670001
847, IDEFOM , CC1(C)CC2C1CCC1(CCC2(C)C1)COC(=O)c1cc(cc(c1)N(=O)=O)N(=O)=O , P21 ,0,0,1.3001151287200001,0.670850387841
848, QEDJOB , O=N(=O)C1=NN(C=C1)c1cccnc1N(=O)=O , Fdd2 ,0,0,1.56921676518,0.695226927907
849, LALQIZ , CC(=O)C(=NNc1c(C)cccc1N(=O)=O)C(C)=O , P21/n ,0,0,1.3901601661,0.6936987780339999
850, WEGVUB , COc1ccc(OC)c(C2=NOC3=C2C(=O)C=C(C)C3(OC)OC)c1C1OCCCO1 , P-1 ,1,1,1.32808605986,0.667688242345
851, VIKNUY , COC12CCC(OC(=O)c3cc(cc(c3)N(=O)=O)N(=O)=O)C3=C(COC(C)=O)CC(C13)C(=O)O2 , P21/c ,1,0,1.52505169927,0.70794413134
852, NOHFUN , CCOC(=O)C1(C(CCC1C(ON1C(C)(C)CCCC1(C)C)c1ccccc1)C(CC)C(=O)c1ccccc1)C(=O)OCC , P21/n ,0,0,1.2047775088700001,0.678846153846
854, XIVCUC , Nc1cc(ccc1C1=Nc2cc(ccc2C(=O)O1)N(=O)=O)N(=O)=O , P21/n ,0,0,1.67093755083,0.74656285073
855, BOFHOT , O=N(=O)c1ccc(cc1)N=NC(=NN(c1ccccc1)c1ccccc1)c1ccccc1 , P1121/b ,0,0,1.29809010974,0.6791861852
856, YICXUG , CON1C(=O)C=C(OC)C1(C)O , P21/n ,0,0,1.31001396185,0.659339328952
857, XACCIQ , O=C(OCC(N(=O)=O)(N(=O)=O)N(=O)=O)c1cc(C(=O)OCC(N(=O)=O)(N(=O)=O)N(=O)=O)c(cc1N(=O)=O)N(=O)=O , P21/c ,1,0,1.8146159525,0.7313042055310001
858, QOTGOV01 , O=N(=O)c1ccc(NC23CC4CC(CC(C4)C2)C3)nc1 , Pca21 ,0,0,1.3242369485299998,0.689494136303
859, BURJAZ , O=C(OC12CCCC(CCC1)O2)c1cc(cc(c1)N(=O)=O)N(=O)=O , P21/c ,1,0,1.4712668539899998,0.701749674236
862, JOTDUR , CC(=O)N1CN(C2C1OCN2N(=O)=O)C(C)=O , P21/c ,1,0,1.51454212546,0.711125
863, PEVNOV , CCOC(=O)C1(Cc2ccccc2C1)C(=O)c1ccc(cc1)N(=O)=O , P21/c ,1,0,1.3713273704299997,0.696302124312
864, BUVJOR , [O-][N+]1=C2C3CC(C4CCCC34)C2=NO1 , P212121 ,0,0,1.36534225885,0.614662084765
865, EROXEP , CC(C)(C)c1ccc(cc1)C(CC(=O)c1ccc(cc1)C(C)(C)C)CN(=O)=O , Pna21 ,0,0,1.14947610371,0.652254220881
866, MOLFID , None , P2/c ,1,0,1.24104482844,0.646796705846
867, SUVNUU , CC(=O)OC12NC1(C#N)C(c1ccc(cc1)N(=O)=O)C1=C(CCCC1=O)O2 , P21/c ,1,0,1.37331650505,0.657422596298
868, FEFHUW , CN1C=NC(=C1N(=O)=O)C1=CON=C1c1ccccc1 , P212121 ,0,0,1.4813227932799997,0.7105440669149999
869, DNCOOC , O=N(=O)C1=CC=CC=C(C=C1)N(=O)=O , Pn21a ,0,0,1.45044018448,0.690474929379
870, MOZYOQ , O=C1CCC(=O)N1OC(=O)C12CC3CC(CC(C3)C1)C2 , P21/n ,0,1,1.3773727755,0.7127495142199999
871, TOGWIX01 , CC1(C)CCCCc2c(cc(cc2N(=O)=O)N(=O)=O)C1=O , Pbca ,1,0,1.43979046337,0.724275764728
872, IDODIO , CC(ON1C(C)(C)CCCC1(C)C)C=CC1CCC(O)C1C(=O)OC(C)(C)C , P21/c ,1,0,1.06729488604,0.628943058705
873, QEZGEJ , OC12C3C(CC=C(C3CC1=NNc1ccc(cc1N(=O)=O)N(=O)=O)c1ccccc1)c1ccccc21 , P212121 ,0,0,1.4398775219600002,0.711837995322
874, DEYRUV , Cc1cc(C)cc(c1)N=C(C)c1ccc(cc1)N(=O)=O , P21/c ,1,0,1.22267520191,0.653203917226
877, NMBZYA01 , COc1ccc(cc1)N=Cc1ccc(cc1)N(=O)=O , P21/c ,1,0,1.3594117508,0.691188154568
878, VAGSAZ , COC(=O)C1(CC2=C3C(=CC=C(C(c4ccccc4)C3=C(C)O2)c2ccc(cc2)N(=O)=O)C1)C(=O)OC , P-1 ,1,1,1.38545962489,0.6980868544600001
879, OQIVUG , CC1=C(C(=O)c2ccccc2)c2ccccc2N1O , I41/a ,1,0,1.3347681121700001,0.696568823608
880, BUGJIW , COCC1(C)CN(C(=O)O1)c1ccc(OCc2cccc(c2)N(=O)=O)cc1 , P21/c ,1,1,1.3638323486300001,0.7099123667630001
881, XENPOX , CC1(CN(CCN(Cc2ccccc2)C1)Cc1ccccc1)N(=O)=O , C2/c ,1,0,1.21534658354,0.6714240812100001
882, WUVWAL01 , Oc1ccccc1C=NNc1ccc(cc1)N(=O)=O , Pc ,0,0,1.42245639665,0.702168978562
883, BUVVET , CC(C)(C)C1CCC2CCCC2C(C1)=NNc1ccc(cc1N(=O)=O)N(=O)=O , P21/n ,0,0,1.23498378485,0.668020456157
884, MAWHAT , O=C1OCCC21CC(N(O2)c1ccccc1)c1ccccc1 , P-1 ,1,1,1.30288548154,0.676525317588
885, YASXAS , O=N(=O)c1ccc(cc1)C1=Nc2ccccc2N(CC1)Cc1ccccc1 , P212121 ,0,0,1.3453859844100002,0.705991987073
886, TIDKIC , CN1N=CN=C1C1=C2N=[N+]([O-])c3ccc(OCc4ccccc4)cc3N2N=C1 , P-1 ,1,1,1.4540809781600001,0.713294921041
887, LOXNER , C(OCc1ccccc1)C(N1OCC2COc3ccc4ccccc4c3C12)c1ccccc1 , P21 ,0,0,1.2835854699299998,0.6813307240700001
888, VERWIZ , CCOC(=O)C1=C(C)NC(=C(C1c1ccc(cc1)N(=O)=O)C(O)=O)C , P21/n ,0,0,1.3432228029100002,0.677151458528
889, NPHDZB , CCC=NNc1ccc(cc1N(=O)=O)N(=O)=O , P21/c ,1,1,1.4635172661000002,0.713533370643
891, COVJOO , OC(C1OC1c1ccc(cc1)N(=O)=O)c1ccccc1 , P21 ,0,0,1.32618860596,0.6714463563199999
892, VAZNEP , CC(C)(C)C1=CC(C)(O)C(=O)C(C)(Cc2ccccc2)C1N(=O)=O , P21/c ,1,0,1.2555288725,0.689477076366
893, LAJFAF , COCCNC(=O)Nc1ccc(cc1)N(=O)=O , P21/c ,1,0,1.37631937792,0.68599537037
894, QOTGEL , O=N(=O)c1ccc(NC2CCCCCCC2)nc1 , Pca21 ,0,0,1.2653633014799999,0.686910642119
895, NANILI22 , Nc1ccc(cc1)N(=O)=O , P21/n ,0,0,1.4294664614500001,0.69818371015
896, LERPON , CC(=C(CC(=O)c1ccccc1)c1ccccc1)C(c1ccccc1)=C(C#N)c1ccc(cc1)N(=O)=O , P21/c ,1,0,1.29844058719,0.690548742723
897, ILIDEM , CCOC(=O)C(NC(=O)Nc1ccc(cc1)N(=O)=O)C(O)C1OC(OC)C2OC(C)(C)OC12 , P212121 ,0,0,1.4783953340399998,0.698252057403
899, XAPFIF , CN1C(=O)N(c2ccccc2N(=O)=O)C2(CC(=NO2)c2ccccc2)C1=O , Pbca ,1,0,1.50689015752,0.7272428571430001
902, QEGNUO , CC1(CC1N([O])=C(c1ccccc1)c1ccccc1)c1ccc2ccccc2c1 , P212121 ,0,0,1.2117355466,0.661833201845
903, LUPWOI , COc1nc(N)nc(OC)c1N(=O)=O , P21/c ,1,0,1.6462780423199999,0.750702702703
904, GIJLOA , CC(C)(C)N1OC1(c1ccccc1)c1ccccc1 , P212121 ,0,0,1.16205198901,0.674498506189
905, WEGTIN , COc1cc(OC)c(c(c1)C1OCCCO1)C1=NOC2C1C(OC)(OC)C(=CC2=O)C , P21/n ,0,0,1.3366043443,0.6832438500229999
906, WAMCIZ , COC(=O)N1C(=O)C2(Cc3ccccc3N3CCCC23)c2cc(ccc12)N(=O)=O , P21/c ,1,0,1.41295856272,0.690653515835
907, MOZLAO , CN1C(=O)C2ON3C4CCCC(C4)CC3C2C1=O , P21/n ,0,0,1.4247876636,0.7301581221950001
908, UBEGEQ , CC(C)(C)N([O])c1cccc(c1)c1cc(cc2c1Oc1c(cc(cc1C2(C)C)C(C)(C)C)c1cccc(c1)N([O])C(C)(C)C)C(C)(C)C , P-1 ,1,1,1.16774013172,0.678803912137
909, SESFIH , OCc1ccc(cc1)C1=NOC(C1)CC1=C2N(C(=O)c3ccccc23)c2ccccc12 , P21/c ,1,0,1.3844616610299998,0.714332629604
910, NPHOPN , CC(C)(c1ccc(Oc2ccc(cc2)N(=O)=O)cc1)c1ccc(Oc2ccc(cc2)N(=O)=O)cc1 , Pbca ,1,0,1.35430156134,0.6907696493559999
911, FITFEU , None , P21/n ,0,0,1.1858569701000001,0.66796222211
912, CIDVIX , CC1(C)OC2(N(OCc3ccccc3)C1=O)C(=C2c1ccccc1)c1ccccc1 , P212121 ,0,0,1.2294306824099999,0.658695284773
913, VAWFOO , O=C1c2cccc(c2c2c1cccc2N(=O)=O)N(=O)=O , P212121 ,0,0,1.57074673002,0.694652908068
914, COSREJ , COC(=O)C(C)NC(=O)CC(C(CC(C)C)NC(=O)C(Cc1ccccc1)NC(=O)OC(C)(C)C)N1N=[N+]([O-])c2ccccc12 , P212121 ,0,0,1.2564569723999999,0.664468009897
915, TELNIH , COC(=Cc1cccc(c1)N(=O)=O)C(=O)c1ccccc1 , P-1 ,1,1,1.39369898972,0.710272366522
917, MANBIO , O=N(=O)c1ccc(N2CCCC2)c(c1)C#N , P21/n ,0,0,1.42508515075,0.7287273060699999
919, FOMQEE , COc1c(OC(C)=O)c(C)cc(C=C(C)N(=O)=O)c1N(=O)=O , P-1 ,1,1,1.44464238818,0.6970899470899999
920, OJAXII , O=C(OC1CCC(OC(=O)c2cc(cc(c2)N(=O)=O)N(=O)=O)C(OCc2ccccc2)C(OCc2ccccc2)C1COCc1ccccc1)c1cc(cc(c1)N(=O)=O)N(=O)=O , P21 ,0,0,1.4180002520700001,0.692812110834
921, FEDXOC , CCCCOC(=N)C1=N([O])C(C)(C)C(C)(C)N1=O , P21/c ,1,1,1.1630509819,0.635338896208
923, BAJCIY02 , Cc1cc(ccc1N)N(=O)=O , Cc ,0,1,1.4325257175400001,0.729238085636
924, UJOKOT , Cc1cc(C)c(N=C(C)C(C)=NO)c(C)c1 , P21/c ,1,0,1.1278334695399999,0.6404623429940001
926, BIPCUY , O=N(=O)C1c2ccccc2C(Cc2ccccc2)c2ccccc12 , Pca21 ,0,0,1.28277793046,0.682123391583
927, UBIZEM , [O-][n+]1ccc(cc1)C(c1ccccc1)(c1ccc[n+]([O-])c1)c1cccc[n+]1[O-] , P-1 ,1,1,1.4567295473500002,0.740242004637
928, GAZGAR , COC(=O)C(N(N=Cc1cccc(c1)N(=O)=O)C(=O)CC#N)C(=C=NC(C)(C)C)C(=O)OC , P-1 ,1,1,1.30595237734,0.660837887067
929, JALKEP , CN1C=C(C=C1C(=O)NC1=CN(CCCN=[N+]=[N-])C(=C1)C(=O)NCCN1CCOCC1)N(=O)=O , P21/c ,1,0,1.41262636903,0.709457713897
930, BAPXEX , COC(=O)C1CC(N(O)C1c1ccc(C)cc1)C(=O)OC , P21/n ,0,0,1.0092219661,0.695894179894
931, JOZMUG , CC1=CC(=C(O1)C(C)=NNc1ccc(cc1N(=O)=O)N(=O)=O)c1ccccc1 , P212121 ,0,0,1.4499354623899998,0.7047250110100001
932, BABVIM , COC1(OC)C2CC(c3ccccc3)C3(CCC4C(C)(C)C(CCC4(C)C3=C2)OC(=O)c2ccc(cc2)N(=O)=O)C1=O , P21/c ,1,1,1.25882771816,0.661610949747
933, WALPEH , O=C(CCCCC(=O)ON1C(=O)CCC1=O)ON1C(=O)CCC1=O , P21/c ,1,0,1.4943126271,0.718112578123
934, SAZLIP , CC1=C(C(c2cccc(c2)N(=O)=O)C(=C(C)N1)C(=O)OC(C)(C)C)C(=O)ON1N=Nc2ccccc12 , P21/n ,0,0,1.30175158347,0.649585145199