ID,name,smiles,space_group,inversion_symmetry,beta_packing,density,packing_coefficient
2533, AFIFOK , COC(=O)C(CC1=CNc2ccccc12)N1C(=O)c2ccccc2N=C1C(C)=NOCc1ccccc1 , P212121 ,0,0,1.28000305213,0.654042604696
2534, BIXFAP , O=C(N1C=CC=C1)c1ccc(cc1)N(=O)=O , P21/c ,1,1,1.45623295629,0.6783762926379999
2535, BELBUP02 , ON1N=Nc2cccnc12 , P21/c ,1,0,1.6363271670200001,0.744639376218
2536, TIXWIH , CCOC(=O)C(C#N)=C(NC(C)c1ccccc1)Nc1ccc(cc1)N(=O)=O , P212121 ,0,0,1.29441439649,0.663716885288
2537, SEPYOE , COC(=O)C1(C)CCc2ccc(cc2N1)N(=O)=O , P-1 ,1,1,1.40111342379,0.7064354727399998
2539, LANVII , CC(C)c1cccc(C(C)C)c1N1C(=C[N+](=C1c1ccccc1)c1c(cccc1C(C)C)C(C)C)N=N[O-] , P212121 ,0,0,1.10467259906,0.6325266515829999
2541, GIKDOW , O=N(=O)c1ccc(cc1)[N+]1=NOC(=N1)[O-] , P21/c ,1,0,1.71345264904,0.74969968909
2542, RAVYAP , COc1c(C)c(OC)c(OCc2ccccc2)c2C(COCc3ccccc3)N3C(Cc12)C1C(CC(N1C(=O)OC(C)(C)C)C3=O)C=NO , P-1 ,1,0,1.2386165868999999,0.657171905799
2543, QAYBUO , CN1OCCC21CC(=O)OC2CO , P212121 ,0,0,1.36260691003,0.699957133059
2545, KAXJUO , O1N=C(N2C1C=CC1C2ON=C1c1ccccc1)c1ccccc1 , P21/c ,1,0,1.29038921074,0.645928950887
2546, YUKVOP , CC1(C)OC2CCC(C2O1)C(=NO)C#N , P212121 ,0,0,1.2364237585299998,0.635757667571
2547, WUXJOO , COc1ccc(cc1N(=O)=O)C=C(c1ccc(cc1N(=O)=O)N(=O)=O)N(=O)=O , P21/c ,1,0,1.5205916917299998,0.678954313046
2548, ONABEL , COc1ccc(cc1)C(C=Cc1ccccc1N(=O)=O)=C(C#N)C#N , P-1 ,1,1,1.31240046628,0.66916677443
2549, LEBGAA01 , CC(C)(C)OC(=O)CCC(CCC(=O)OC(C)(C)C)(CCC(=O)OC(C)(C)C)N(=O)=O , Pbca ,1,0,1.14973380091,0.6422478213880001
2550, NAQSUW , Nc1cc(ccc1c1ccc(cc1)N(=O)=O)N(=O)=O , P21/c ,1,0,1.49568902246,0.7118774848289999
2551, JEKZOR , Cc1c(c(O)c(c(O)c1N(=O)=O)N(=O)=O)N(=O)=O , P212121 ,0,0,1.75942249882,0.727090592334
2552, CANFAA , OCCCN1CCN(CC1)c1ccc(cc1)N(=O)=O , P21/c ,1,0,1.3678337373299998,0.7207642031170001
2553, JUDPEF , COC1CCC2(CC1)NC(=O)C(C2=O)(c1cc(C)ccc1C)N(=O)=O , P21/c ,1,0,1.27062603816,0.658105830806
2554, EFAWIT , CC1=NN(C(=C1)C)C(=NO)C(=O)NN=C(C)c1ccccn1 , Cc ,0,0,1.35024160572,0.6894115369730001
2555, QEVVIX , O=C1NC(NC(N1)=NN(=O)=O)=NN(=O)=O , Pnma ,1,0,1.99813724645,0.7759910126790001
2556, NAPLOI , CN1CCNc2ncc(cc2Oc2ccccc2C1=O)N(=O)=O , Pbca ,1,0,1.5081447737399998,0.729187426397
2557, BOBREQ , CC1C2COC(=O)C12C(=NO)c1ccccc1 , P21/c ,1,0,1.3121835988500001,0.676609063889
2559, RERWOC , COC(=O)C1(CC(ON2OC(CC(C12)c1ccccc1)c1ccccc1)c1ccccc1)C(=O)OC , P21/c ,1,0,1.33207768246,0.69861612968
2560, ALICUV01 , None , P-1 ,1,1,1.28392304332,0.680485878855
2561, JEJWEA , O=N(=O)c1ccc(cc1)C1CC2(ON1c1ccccc1)C(ON=C2c1ccccc1)N1CCOCC1 , P21/n ,0,0,1.3197747282799999,0.663655005282
2562, AXEPAV , O=C(OC1CC2COCC2C1c1ccccc1)C1CCCN1c1ccccc1N(=O)=O , C2 ,0,0,1.34451358734,0.6978125452699999
2564, DNOPHL , Oc1ccc(cc1N(=O)=O)N(=O)=O , P212121 ,0,0,1.6674851886000002,0.7232084155159999
2565, RODCUI , CC12CCCOC1CC(OC(=O)c1cc(cc(c1)N(=O)=O)N(=O)=O)C(C)(O2)C1CCC2OC(CCC2O1)COC(=O)c1cc(cc(c1)N(=O)=O)N(=O)=O , P21 ,0,1,1.4330848916799999,0.68222355796
2566, ROFXEQ , CC(=NOc1cnccn1)C(C)=NOc1cnccn1 , P21/n ,0,0,1.4209339013,0.701744186047
2567, BUDVIH , CC1=NOC(O)(C1=C)c1ccc(cc1)N(=O)=O , P21/n ,0,0,1.4502731303799998,0.701340098881
2568, PEYTIX , COc1ccc(C=CC=CC=Cc2ccc(cc2)N(=O)=O)cc1 , Pbcn ,1,0,1.29726917472,0.6959446683580001
2569, BUCNES , CC1(C)COC2(CC3CCC2C3)N1[O] , P21 ,0,0,1.19098346637,0.702871687047
2570, ZAYRAS , O=C(OC1CC2CCC1C2)c1ccc(cc1N(=O)=O)N(=O)=O , Pbca ,1,0,1.49945595734,0.722518323022
2571, KERJEZ , O=C(ON=C1CCC2COC1O2)c1cccc(c1)N(=O)=O , P212121 ,0,0,1.54460721113,0.7255635820149999
2572, MNPYDO20 , Cc1cn([O])ccc1N(=O)=O , P212121 ,0,0,1.53856179063,0.731592495536
2574, SAVJEH , O=C(NC1CCCCC1)C(N1CC2=CON=C2c2ccccc2C1=O)c1cccc(c1)N(=O)=O , P21/c ,1,0,1.3072425627500002,0.672664067576
2575, CACFOD01 , CC1=C(C(CCC1)=NNc1ccc(cc1N(=O)=O)N(=O)=O)N(=O)=O , P21/c ,1,0,1.5053617213100001,0.702413188914
2576, GEMSID , CCOC(=O)C1=C(C(c2ccc(cc2)N(=O)=O)C2=C(Nc3ccccc23)C(=O)OCC)c2ccccc2N1 , P21/n ,0,0,1.3527078090200002,0.6739553140100001
2577, BUBLOZ , C=COc1ccc(cc1)N(=O)=O , P21/a ,0,1,1.44439205229,0.710729056849
2578, YIZHIZ , O=N(=O)C1C(ON(C1c1ccc(cc1)N(=O)=O)c1ccccc1)c1ccccc1 , P-1 ,1,1,1.40343150125,0.695818021119
2580, VUJLAO , CC1=NOC(=C1)c1cncnc1c1ccccc1 , P21/n ,0,0,1.34187505481,0.6900941964890001
2581, BETJIW , CC1=C2C(=NN1)NC1=C(C(=NO1)C)C12C(=O)Nc2ccccc12 , C2/c ,1,0,1.25650410106,0.597101792624
2582, YEZQOL , CON1C(CC(=CCCCCCCCCCCC1=O)C)c1ccc(cc1)N(=O)=O , P21/n ,0,0,1.18528296979,0.664186206897
2583, SAFWUT , CCOC(=O)c1ccc2N(CCCN3CCCC3=O)C(=Nc2c1)c1ccc(cc1)N(=O)=O , P-1 ,1,1,1.39286156635,0.7126408010009999
2584, PEJKEX , COc1cccc2C(=O)ON(C)c12 , P-1 ,1,1,1.4155994538799999,0.7079238329240001
2585, QEYGOS , CC1(C)C(=Nc2ccccc12)C=Cc1cccc(c1O)N(=O)=O , P21/c ,1,0,1.3403621349400001,0.686197262367
2587, ZIWQED , CC(=NO)C1=CC=CN1 , P212121 ,0,0,1.3234292888899999,0.7042931525689999
2588, XAQDIF , CC1(C)Oc2ccc3C4=C(N(O)c3c2C=C1)C(C)(C)C1CC23CCCN2C(=O)C1(NC3=O)C4C1=C(O)C(=O)C=C(CO)O1 , C2 ,0,0,1.0660390581399999,0.519701900694
2590, OYITUN , COc1ccc(OC)c2c1CC(C)(O)CC(=O)Oc1cccc(OC(=O)c3c(C)cccc3N(=O)=O)c21 , P-1 ,1,1,1.44532299315,0.719196793301
2591, ILISON , CCOC(=O)C1=C(N(OC)C=C1)c1ccccc1 , P21/c ,1,1,1.2768603264700003,0.6876235854680001
2592, YUYFED , O=C1OCCC2ON3CCCCC3C12 , P212121 ,0,0,1.34140839735,0.696167191156
2593, TASBOF , COc1ccc(c(OC)c1)C(O)(c1ccc(cc1)N(=O)=O)c1ccc(OC)cc1OC , P21/c ,1,0,1.3240920736,0.664853590407
2594, DIKSOG , COC(=O)c1ccc(NC2=NNC(=C2)c2ccccc2)c(c1)N(=O)=O , C2/c ,1,0,1.50409363608,0.73415046492
2595, RODLUS , CN1N=C(C(=C1N(=O)=O)C#N)N(=O)=O , P21/n ,0,0,1.71757321199,0.7375728350409999
2596, QUNFAH , COC1OC(C2CC3CC(N2O3)c2ccccc2)C2OC(C)(C)OC12 , P212121 ,0,0,1.26228799686,0.654488029654
2597, KUZDIS , ON=Cc1ccc(O)cc1 , P21/c ,1,0,1.41809359989,0.730047249606
2598, REQYES , C1COC2=NON=C2N=NC2=NON=C2N=NC2=NON=C2N=NC2=NON=C2O1 , Aba2 ,0,0,1.7068446147299998,0.7001227954829999
2599, NEWCIC , CCCCCCCc1ccc(cc1)c1ccc(cc1)N(=O)=O , P21/a ,0,0,1.1820273801999999,0.683877887865
2600, CIFROY , O=N(=O)C1=NNC=N1 , P41212 ,0,0,1.66892550768,0.704279402483
2601, DAYHIX , CC(C)(C)N1N=C(C=C1C1=CC=CO1)C(=O)Nc1ccc(cc1)N(=O)=O , P21/c ,1,0,1.35856486104,0.685642745361
2602, RECWIF , CC1CC(CC2(CC(C)(O)CC(C)O2)O1)OC(=O)c1ccc(cc1)N(=O)=O , P212121 ,0,0,1.33083820439,0.6803328474250001
2604, WEWQAS , CN1C=C(C=N1)C1=N([O])c2ccccc2N1[O] , C2/c ,1,1,1.4577268597100002,0.706909430439
2605, MEJLOF , CC(=O)C1(CC2CCC1C=C2)OC(=O)c1ccc(cc1)N(=O)=O , P21/c ,1,0,1.3421380577600002,0.675092764378
2607, OLIJEY , COC(=O)c1cc(OCC(C)C)c2cccc(c2n1)N(=O)=O , Pna21 ,0,1,1.2912311567499999,0.643854734876
2610, VANCEV , CC(C)c1cc(C)c2ccc(C)cc2c1N(=O)=O , Pnma ,1,0,1.2686684828,0.6937432188070001
2611, FOGKAO , CC1(C)N([O])C(=N([O])C1(C)C)c1c2ccccc2cc2ccccc12 , Pbca ,1,0,1.3142528976,0.705267260161
2612, ZAYGEO , O=N(=O)OCCN(CCON(=O)=O)C(CON(=O)=O)(CON(=O)=O)CON(=O)=O , P-1 ,1,1,1.73363999635,0.731736602629
2613, PALBIO , COC1=CCON(C)C1C1OC(C)(C)OC1C1N(C)OCC=C1OC , P212121 ,0,0,1.24661445689,0.65796201607
2614, KAVFUI01 , O=N(=O)N1C=NC(=C1)N(=O)=O , P212121 ,0,0,1.7531083442500002,0.722423308946
2616, HEXBIV , [O-][N+]([O-])=C1C=CC2=[O+]CCOCCOC2=C1 , P21/c ,1,0,1.5040893398100001,0.7334839073970001
2617, QONHOS , CCOC(=O)C(=Cc1cccc(c1)N(=O)=O)C#CC(C)(C)C , P21/a ,0,1,1.2429494148,0.671125659566
2618, ZZZVCO04 , Cc1ccn([O])cc1 , I41/amd ,1,0,1.17593649033,0.663383838384
2619, RIFTAC , None , Cmc21 ,0,0,1.3265550501299999,0.6903331257780001
2620, XARBUN , CC1(C)N([O])C(=N([O])C1(C)C)c1ccc(C=O)cc1 , P-1 ,1,1,1.27189261625,0.670523648649
2621, UCAQUN , O=C1N(Cc2cccnc2)C(=O)c2ccc(c3cccc1c23)N(=O)=O , Pbca ,1,0,1.5615789454700002,0.748803156388
2622, TAFFEL , O=N(=O)C1c2ccccc2C(c2ccccc12)N(=O)=O , Pnma ,1,0,1.56802706213,0.7379283589810001
2623, XABCOT , CC[NH+]=Cc1cc(cc(c1[O-])N(=O)=O)N(=O)=O , P21/c ,1,0,1.5192503566600002,0.7290198109739999
2624, POBKEY , CC(C)(C)OC(=O)NC1CC(C)(C)N([O])C(C)(C)C1 , Pnma ,1,0,1.10904282552,0.631137954175
2627, NANILI29 , Nc1ccc(cc1)N(=O)=O , P21/n ,0,0,1.45700654389,0.71538852455
2628, QECLES , O=N(=O)c1ccccc1C1C(C1c1ccccc1N(=O)=O)c1ccccc1N(=O)=O , P21/c ,1,0,1.4312642565399998,0.7066673109289999
2629, FUWREW , CC(CC1OCOC1CCc1ccccc1)=NNc1ccc(cc1N(=O)=O)N(=O)=O , P21/n ,0,0,1.42291685611,0.7129658017749999
2630, DAJKUW , CC(=O)OCC1OC2OC(=NC(C2CC1OC(C)=O)c1cccc(c1)N(=O)=O)c1ccccc1 , P21 ,0,0,1.3296571420799999,0.654738420264
2632, TMPIMZ10 , CC1(C)N([O])C(C)(C)N(=C1c1ccccc1)[O] , B11b ,0,0,1.2219770450299998,0.6035280508959999
2633, LERFEU , ON=C1C2COC1(COC2c1ccc2OCOc2c1)c1ccc2OCOc2c1 , P212121 ,0,0,1.57530298264,0.757169811321
2634, TITWAV , O=C(Nc1ccccc1N(=O)=O)c1cnccn1 , P21/n ,0,1,1.5567387495299998,0.739461246946
2636, CATXUT , O=C(Nc1c(cc(c2cccnc12)N(=O)=O)N(=O)=O)c1ccc(cc1)C(=O)Nc1c(cc(c2cccnc12)N(=O)=O)N(=O)=O , P21/c ,1,0,1.63967149336,0.7339860139859999
2638, SETRAL , O1N=C(c2ccccn2)C(=N1)c1ccccn1 , Fdd2 ,0,0,1.3354143836799999,0.658953168044
2639, DAFPAB , CN(C)C(=NO)C(C)=NO , P-1 ,1,1,1.23155039985,0.656918096959
2640, AZUZIE , CC1(C(OC(=O)C1=C)c1ccc(cc1)N(=O)=O)c1ccccc1 , C2/c ,1,0,1.3437934040700001,0.6844864524259999
2641, NUPPOD , CCOC(=O)c1ccc(cc1)N(=O)=O , P-1 ,1,0,1.4714689325,0.699247047634
2643, FIDSIX , C[N+]([O-])=Cc1c(C)cc(C)cc1C , C2/c ,1,1,1.1826366141700002,0.689077089136
2644, ACENUS , O=N(=O)c1ccc(OC2CCCCO2)cc1 , P21/c ,1,1,1.36441748028,0.691246833662
2645, NAZYAP , CCNc1ccc(Cc2ccc(N(CC)C(=O)c3cccc(n3)C(=O)N(CC)CC)c(c2)N(=O)=O)cc1N(=O)=O , P-1 ,1,1,1.33192853551,0.6940036675460001
2646, QAMJOG , COC1C(ON(=O)=O)c2ccccc2N1C(=O)OC(C)(C)C , P43212 ,0,0,1.28220221236,0.640812932668
2647, SAXHUX , CN1C=[N+]([O-])C(=C1C)C(=O)Nc1ccc(cc1)C#N , P21/c ,1,0,1.4264119826800001,0.7252490949279999
2649, JASHAN , CON=C1C2CCC(C)(OC1=O)C2(C)C , P212121 ,0,0,1.2284478185299998,0.6742436466320001
2650, BELHAB01 , COC(=O)C1=C(C)NC(=C(C1c1cccc(c1)N(=O)=O)C(=O)OC)C , P21/n ,0,0,1.37998292519,0.692736842105
2651, GIBZIA , O=C1OC(C([N+](=C1)[O-])c1ccccc1)c1ccccc1 , P212121 ,0,0,1.3773667738100002,0.7149610678530001
2652, HELBEF , CC(=NO)c1ccc(O)cc1 , P21/n ,0,0,1.34149653328,0.7105920799690001
2653, CAJTEM , O=N(=O)C1=CN2C(=NC=C2c2ccccc2)C=C1 , P1121/b ,0,0,1.38218623493,0.686231884058
2654, XUXMOS , COC12CCCCC1C1C(=O)C=CC(=O)C1=CC2N(=O)=O , C2/c ,1,0,1.44011375482,0.7254961194130001
2655, DNBENZ15 , O=N(=O)c1cccc(c1)N(=O)=O , Pna21 ,0,0,1.56879363709,0.7056863569480001
2656, TEWJOU , Nc1c(c(N)c(c(N2CCCCC2)c1N(=O)=O)N(=O)=O)N(=O)=O , P21/n ,0,0,1.6124422490900001,0.735857877513
2657, IBOPEW , O=N(=O)c1cc(c(c2cc(c(cc2N(=O)=O)N(=O)=O)c2c(cc(cc2N(=O)=O)N(=O)=O)N(=O)=O)c(c1)N(=O)=O)N(=O)=O , P212121 ,0,0,1.83352009684,0.7432309499590001
2658, INEROI , COC(=O)C1(Cc2ccc(cc2)N(=O)=O)N=NCC1=C , P21/n ,0,0,1.37563387486,0.689841041561
2659, ZIWXIM , CC(C)C1C(N(N=O)C(CC1=O)c1ccccc1)c1ccccc1 , P21/c ,1,0,1.3537341219499999,0.6881557735089999
2661, TAWLUZ01 , O=N(=O)c1ccc(cc1)N1c2ccccc2c2ccccc12 , Pbcn ,1,1,1.39216711747,0.701629839299
2662, JUWQUN , CCC1COC2=C(C(C)N(C(=O)N12)c1ccc(cc1)N(=O)=O)C(=O)Nc1ccc(cc1)N(=O)=O , P21/c ,1,0,1.4492638567200002,0.7027750782850001
2663, BAQLUA , CC(=O)CC(C(C1OC(COC(C)=O)C(OC(C)=O)C(OC(C)=O)C1OC(C)=O)N(=O)=O)c1ccccc1 , P21 ,0,0,1.29525189198,0.650895400895
2664, YUHTIE , CC1(C)NC(=O)N=N1[O] , P21/c ,1,0,1.50989758649,0.734546321309
2665, CUWTAR , O=N(=O)c1ccc(cc1)C1OCCC2C1C(c1ccccc1)c1ccccc21 , P21/c ,1,0,1.2674278376,0.658300873776
2666, FINJIW , CC1=NN(c2ccccc2)C2=C1C(c1cccc(c1)N(=O)=O)C1=C(CC(C)(C)CC1=O)N2 , Pbca ,1,0,1.29754774406,0.6707601507500001
2667, JIMTII10 , COC1CC(OC(=O)C23CCC(C)(C(=O)O2)C3(C)C)C=C2CCCC12N(=O)=O , C2 ,0,0,1.3072996265,0.671804489912
2668, HOFTAX , O=N(=O)c1ccc2C3OC3c3cccc4C5OC5c1c2c34 , P21/n ,0,0,1.56629808486,0.768505079826
2669, AQEKOY , COC(=O)CCN(CCC(=O)OC)c1ccc(N=Nc2ccc(cc2N(=O)=O)N(=O)=O)c(NC(C)=O)c1 , P21/c ,1,0,1.40452699544,0.700017042902
2672, IDOBOU , COc1ccc2cc(ccc2c1c1c(OC)cc(c2ccccc12)N(=O)=O)N(=O)=O , P212121 ,0,0,1.40000606288,0.706262183236
2673, MADMAH , CN1OC(c2ccccc2)C2(COc3ccccc3C12)C#N , Pca21 ,0,0,1.24761121231,0.653835670372
2674, GUMFUR , CCCCc1ccc(cc1)C1=C(N=CN1Cc1ccccc1)N(=O)=O , P21/c ,1,0,1.25877458149,0.6813740802439999
2675, ACXHTZ , CC(=O)ON1CN(CN(C1)OC(C)=O)OC(C)=O , C2/c ,1,0,1.37014888574,0.63153019024
2678, RUGJUZ , CN1C=NC(=C1N(=O)=O)N(=O)=O , Pna21 ,0,0,1.6373140775600001,0.70525017618
2679, VOPMUK , CCOC(=O)C(CC(=O)c1ccccc1)=Cc1ccc(cc1)N(=O)=O , P21/c ,1,0,1.31751766465,0.705879395377
2680, PNOIZA , O=N(=O)C1=CN2C=C(C=C2C=C1)c1ccccc1 , P1121/b ,0,0,1.43617359689,0.731077694236
2681, REVRIV , CCN1N=Cc2c1cccc2N(=O)=O , P21/c ,1,1,1.3974658465,0.6959180216799999
2682, GETNID , CN1N=C2N(C)C(=O)N(C)C(=O)C2=N([O])C1=O , Pbca ,1,0,1.59879167413,0.671941766673
2684, YOVJUP , Cc1ccnc(N)c1N(=O)=O , P21/n ,0,0,1.49703959812,0.720031465977
2685, GUHPUW , CCOC(=O)c1c(C#N)c(N)c(C#N)c(c2ccc(cc2)N(=O)=O)c1C(=O)OCC , P-1 ,1,0,1.31277584577,0.659975258659
2686, BESVUS , CC1(C)C2CCC(OC(=O)c3ccccc3N(=O)=O)C1C2 , P21 ,0,0,1.33807955297,0.706981065582
2687, KEPHUJ , CC(=O)OCC1OC(Nc2cccc(c2)N(=O)=O)C(OC(C)=O)C(OC(C)=O)C1OC(C)=O , P21 ,0,0,1.4245747232700001,0.692973091347
2688, FEBBIZ , CC1(C)OC2C(O)C(CCC(=O)C2O1)N(=O)=O , P212121 ,0,0,1.4030154768799998,0.686190209566
2689, MHPIPO01 , CC1(C)CC(O)CC(C)(C)[N+]1[O-] , Cm ,0,1,1.1355898926299999,0.662486772487
2690, SALOXM03 , ON=Cc1ccccc1O , P21/n ,0,0,1.40289794024,0.712887225896
2691, SAGSAV , CC(C)[NH+]=C1N(C(C)C)C(=O)N(C(C)C)C2(N1C(C)C)C(=CC(C=C2N(=O)=O)=[N+]([O-])[O-])N(=O)=O , Pna21 ,0,0,1.35371392674,0.686616796786
2692, HEDHIK , CC(=O)C=CN1OC(=O)c2cc3ccccc3nc12 , P21/c ,1,0,1.4675662535799998,0.718694400837
2693, CORYIR10 , O=N(=O)OCC(CON(=O)=O)ON(=O)=O , Pna21 ,0,0,1.8417914819699999,0.743752960121
2694, CEDVEO , O=C(C#CC1=CC=C(O1)N(=O)=O)c1ccccc1 , P21/c ,1,0,1.4697028117299997,0.714014185712
2695, HEVPON , COc1cc2CC[N+](=C(C(OC(C)=O)C(OC(C)=O)C(COC(C)=O)OC(C)=O)c2cc1OC)[O-] , P21 ,0,0,1.3399474245799998,0.672757143695
2696, ZORJIZ , CC1=C(C)C2(C)ON(=C(C(C2O)C1N(=O)=O)N(=O)=O)[O] , P21/c ,1,0,1.5801047427700001,0.7301082595199999
2697, FIVBIV , COC(C(O)CC(=NO)C(C)(C)C)c1ccccc1 , P-1 ,1,1,1.11843425014,0.616901408451
2698, DUPHIF , CN(C)C(=CN(=O)=O)N(C)C , P21/n ,0,1,1.26259111979,0.672596241562
2699, IDUMEA , CCOC(=O)C1=C(C(C)OC(=O)c2ccc(cc2)N(=O)=O)C2C3CC(C12)c1c(OC(C)=O)ccc(OC(C)=O)c31 , P21 ,0,0,1.41153527326,0.7033982511920001
2701, JUKDIC , CC1CC2C3CCCC3(N(=O)=O)C(O)(C1)C2=O , C2/c ,1,0,1.34435188972,0.688445378151
2702, GIYYAO , COC(=O)CCN(CCC(=O)OC)c1ccc(N=Nc2ccc(cc2)N(=O)=O)c(NC(C)=O)c1 , P21/c ,1,0,1.69430752469,0.722032066294
2703, VAZRIX01 , CC1(C)C=C(C(=O)OCC#CC#CCOC(=O)C2=CC(C)(C)N([O])C2(C)C)C(C)(C)N1[O] , P21/n ,0,0,1.2004553146899999,0.645899088268
2704, NOCNET , O=N(=O)NCCC#N , P1121/b ,0,0,1.4308303452700002,0.65914600551
2706, FIFSOF , Cc1ccc(cc1)C1C(C(O)C(=C1c1ccccc1)C)C(O)c1ccc(cc1)N(=O)=O , P212121 ,0,0,1.22411304006,0.645116758642
2709, LAMRIB , O=N(=O)c1ccc(N2CCN3CCN(Cc4ccccc4OCCN(CCOc4ccccc4CN(CC3)Cc3c4ccccc4cc4ccccc34)CCOc3ccccc3C2)Cc2c3ccccc3cc3ccccc23)c(c1)N(=O)=O , P21/n ,0,0,1.3203217219299999,0.692820962593
2710, NPBUDO , CC(=O)C=C(O)c1ccc(cc1)N(=O)=O , P212121 ,0,0,1.4089766758000002,0.696571563682
2711, GADYAM , CCOc1cc(C=CC2=Cc3ccccc3N2)c(cc1OC)N(=O)=O , P-1 ,1,1,1.3064299903899999,0.664246823956
2712, EXIFOG , None , P-421m ,0,0,1.15151761697,0.646877360866
2714, KESYAJ01 , CCC1=N([O])N(NC(=O)OC(C)(C)C)C(=C1C(=O)N(C)C)C , P21/c ,1,0,1.20437557135,0.639500940792
2717, OXEJOR , O=N(=O)c1cccc(c1)C1O[N+](=C2CCCCCCCCCCC12)[O-] , P21/n ,0,0,1.26950595173,0.679593910363
2719, LAJBIH , CC1(C)N([O])C2(OCCO2)N(=C1c1ccccc1)[O] , Pc21n ,0,1,1.35820133359,0.620941696413
2720, SELXOY , N#CC1C2CCCC31CCCC(COCc1ccccc1)N3O2 , P21 ,0,0,1.2434227981700001,0.68684380263
2722, DUJBAM , Cc1c[n+]([O-])c(C)c[n+]1[O-] , P21/c ,1,0,1.49682943783,0.76637037037
2723, WACKAM , ON=C1CCCCCC1=NO , Pcab ,0,0,1.20959076749,0.653193268147
2724, JABHUS , O=N(=O)c1cc2OCOc2cc1CN#[C] , C2/c ,1,1,1.5865435680200002,0.7457503019320001
2725, VEMTOW , O=C(Oc1ccccc1N(=O)=O)Oc1ccccc1N(=O)=O , Pc ,0,1,1.5896749919799997,0.731130820399
2726, GISJAV , COc1cc(C=NNc2ccc(cc2N(=O)=O)N(=O)=O)cc(OC)c1OC , P212121 ,0,0,1.44691927397,0.6932125839290001
2727, NOHROT01 , CCOC(=O)C1=[N+]([O-])OC2C(OC)OC(COCc3ccccc3)C12 , P212121 ,0,0,1.3059633447799999,0.656126126126
2728, REMFAR , CCc1[n+]([O-])c(C)c(CC)[n+]([O-])c1C , P21/n ,0,1,1.30721324601,0.732632933105
2729, FEQCAH , CC(C1C(C(CC(=O)c2ccccc2)c2ccccc12)C(=O)c1ccccc1)N(=O)=O , P21/n ,0,0,1.29074925162,0.678117424883
2730, DNBZFX01 , [O]N1=C2C=C(C=C(C2=NO1)N(=O)=O)N(=O)=O , P21 ,0,0,1.75899786338,0.7077024358130001
2731, COBKIN , CCOC(=O)C1(CN1OC)C(N)=O , P21/a ,0,1,1.31454234796,0.649158730159
2732, IPIGEU , CC(C)(C)N([O])c1cccc(n1)c1cccc(n1)N([O])C(C)(C)C , P21/n ,0,0,1.24562486138,0.6900709467720001
2733, DMEGLY , CC(=NO)C(C)=NO , P-1 ,1,1,1.3810359177899998,0.7448281907430001
2736, PAHKAL , CC(C)C(C)(NC(=O)C1=C(C)ON=C1)C#N , P21/c ,1,0,1.19254924075,0.645602287787
2737, GETFIU01 , O=C1C(=C[C-](C=C1N(=O)=O)N(=O)=O)[N+]#N , P212121 ,0,0,1.72664887099,0.725711238908
2738, NADROZ , CC1(C)CC2=C(c3ccccc3N2CC(O)CN2CCOCCOCCN(CCOCCOCC2)CC(O)CN2C3=C(c4ccccc24)C(C)(C)N([O])C(C)(C)C3)C(C)(C)N1[O] , P21/c ,1,0,1.2626912528399998,0.69212962963
2739, EZOLEK , CN1OC(=O)N(C1c1cc2CCc3ccc(CCc1cc2)cc3)c1ccccc1 , P21/c ,1,0,1.30386288545,0.696584896585
2740, NISCAU , CC(C)(C)C(=O)OC1CCC(=O)N(OCc2ccccc2)C1CC=C , P-1 ,1,1,1.22960825613,0.685800992309
2741, DEZTAD , O=C(CNc1ccccc1)c1ccc(cc1)N(=O)=O , P21/c ,1,1,1.39497629815,0.7035917188249999
2742, VECDUC , CC(N)C1(CC(=NO1)c1ccccc1)c1ccccc1 , P21/a ,0,0,1.23488415761,0.6679486403
2744, GIYZUJ , CCC(OC(=O)c1cc(cc(c1)N(=O)=O)N(=O)=O)C(C(COC(=O)c1cc(cc(c1)N(=O)=O)N(=O)=O)OC(=O)c1cc(cc(c1)N(=O)=O)N(=O)=O)c1ccccc1 , P212121 ,0,0,1.53436854167,0.698341929722
2745, AVAHIO , CCOC(=O)C(C(N)=O)=C1NC(C)(C)C(C)(C)N1O , P-1 ,1,1,1.23833615227,0.654188034188
2746, FAHKOO , OCC1CCCN1c1ccc(cn1)N(=O)=O , P21 ,0,0,1.41727210012,0.643675213675
2747, HOTFUS , [O]N1c2ccccc2c2ccccc2C1(c1ccccc1)c1ccccc1 , P21/c ,1,1,1.27759430112,0.674594907407
2748, CEPTEX , CC(=O)N1N=C(C)C(C1c1ccccc1N(=O)=O)C(=O)OC(C)(C)C , P21/c ,1,0,1.2732767353799999,0.660801072566
2749, NIVNEN , CCOC(=O)C1C(c2ccc(cc2)N(=O)=O)C2=C(C=C1C)c1ccc(O)cc1OC2=O , P21/c ,1,0,1.38083228141,0.669290123457
2750, VOLVAU , OC1=C(Cc2ccccc2N(=O)=O)C(=O)CC1 , P21/c ,1,0,1.4884446230200001,0.724741258741
2751, BUNYIU , OC12CCC[N+]3([O-])CCCC(C4CC=CC(=O)N4C1)C23 , P212121 ,0,0,1.36680353148,0.7091820818260001
2752, EKUWEN , CCOC(=O)C1=C(OC(=C1c1ccc(cc1)N(=O)=O)c1ccccc1)c1ccccc1 , P21/c ,1,0,1.35763537303,0.6944016551890001
2753, BAMCUP , CCOC(=O)CN1CNC(=NN(=O)=O)N(CC2CCCO2)C1 , C2/c ,1,0,1.34780468088,0.669176368186
2754, JIMTII , COC1CC(OC(=O)C23CCC(C)(C(=O)O2)C3(C)C)C=C2CCCC12N(=O)=O , C2 ,0,0,1.3072996265,0.671804489912
2757, XEXMUJ , CCOC(=O)C1=NOC2CC(=O)CCC2C1 , P21/c ,1,0,1.30103163529,0.66667989733
2758, DNEIBA , NC(=O)c1cc(N2CC2)c(cc1N(=O)=O)N(=O)=O , P-1 ,1,1,1.59414805194,0.709857549858
2759, OWAPEI , CC12COCC(O1)C(O2)c1ccc(cc1)N(=O)=O , P21/n ,0,0,1.48885564485,0.72563086273
2760, JELROH , CCN1c2ccccc2N=C1C1=N([O])c2ccccc2C1=O , Pbca ,1,0,1.3884437666799998,0.70182056096
2761, XUVNUY , CC(C)(C)C1=CC(=NO1)N , Pbca ,1,0,1.13877633971,0.643588263588
2762, LISZOC , [O-][N+](Cc1ccccc1)=CC1=CC=CO1 , Pca21 ,0,0,1.29638935595,0.6875701459029999
2765, QAYQOX , CC1CC(=O)C=C(C1)NC1=NOC(=C1)C , P21/a ,0,0,1.2491711339700002,0.68483436853
2766, BAHPOP , CC(CCC1C(=C)CCC2C1(C)CCC1C(C)(C)CCCC21C=O)=NNc1ccc(cc1N(=O)=O)N(=O)=O , P212121 ,0,0,1.23695170806,0.682145931689
2768, XISJAL , COCCOc1ccc(cc1)N(=O)=O , Pna21 ,0,0,1.3835378706400001,0.7018030513179999
2769, CESYAD , COC1ON(C(C1O)c1ccccc1)C(=O)OCc1ccccc1 , P21 ,0,0,1.37232682277,0.7040979853479999
2770, SOPFEI , CC1(C)OC2OC(C3CC(=NO3)c3ccccc3)C(OCc3ccccc3)C2O1 , P212121 ,0,1,1.32831874899,0.7027965398739999
2771, PARMEB , CC1=N([O])c2ccccc2C1(C)O , C2/c ,1,0,1.26279825379,0.666018716731