ID,name,smiles,space_group,inversion_symmetry,beta_packing,density,packing_coefficient
3474, CIRLEV , CC(N(Cc1c2ccccc2cc2ccccc12)C(=O)c1ccccc1N(=O)=O)c1ccccc1 , P21 ,0,0,1.30784587296,0.684955050238
3475, CACFUI , Cc1cccc(C)c1NC(=NO)C(C)=NO , P21/c ,1,0,1.32774162856,0.7066054100939999
3476, XENPUD , COc1ccc(CN2CCN(Cc3ccc(OC)cc3OC)CC(C2)(c2ccccc2)N(=O)=O)c(OC)c1 , P21/n ,0,0,1.3243683509200002,0.7049182299179999
3477, MEBQAL , O=C(OCC12CCC3(CC1CCN(Cc1ccccc1)C2)OCCO3)c1ccc(cc1)N(=O)=O , P21/n ,0,1,1.30911759449,0.670723783261
3478, FAVCOW , CC(=NNc1ccccc1N(=O)=O)c1ccccc1N , P-1 ,1,1,1.4018470540099999,0.7115288220550001
3479, JOTNOX , O=N(=O)C1=NN(CCN2N=C(C(=C2N(=O)=O)N(=O)=O)N(=O)=O)C(=C1N(=O)=O)N(=O)=O , P21/n ,0,0,1.8626199213999999,0.730822900493
3480, KASNAT , CON1C(=O)C2(CC3N=C(C(C)CC4C5C(CC(C)C5CO)OC4=O)C4CC2OCC34)c2ccccc12 , P212121 ,0,0,1.26219663403,0.658357676079
3481, COQVAF , COc1ccccc1C=C(C#N)N(=O)=O , P21/c ,1,0,1.39791090965,0.7004956516449999
3482, OBOHOF , CC(C)(C)c1cc(C=NNc2ccc(cc2N(=O)=O)N(=O)=O)cc(c1O)C(C)(C)C , Pnma ,1,1,1.2284473778,0.626426300528
3483, MUBHAT , CCN(CC)c1nc(NN=C(C)c2ccc(cc2)N(=O)=O)nc(n1)N(CC)CC , P21/n ,0,0,1.3012539812100001,0.691318426197
3484, SAWFUT , COC1N2OC(=O)N(c3ccccc3)C2(C)CC1(C)C , P-1 ,1,1,1.2816967076999999,0.6867429898790001
3485, BATRAQ , O=N(=O)c1cc2CCc3ccc(CCc1cc2)cc3N(=O)=O , P21/c ,1,0,1.50519742244,0.7524757014489999
3486, BIKSOD , COC(=O)Nc1cc(nc(NC(=O)OC)[n+]1[O-])N1CCC=CC1 , P-1 ,1,1,1.4682723220299998,0.717797405782
3487, LIYPUE , COc1ccc2N(C=C(CCNC(C)=O)c2c1)N=O , C2/c ,1,1,1.3486166249,0.687866445598
3488, QUFPUE , Oc1c(cc([N+]#N)c([O-])c1N(=O)=O)N(=O)=O , Pbca ,1,0,1.8373084377000002,0.7487390051780001
3489, LIZBUS , O=N(=O)c1cc2Cc3ccc4ccccc4c3c2c2ccccc12 , P-1 ,1,1,1.4735805987600001,0.7458592790270001
3490, LIXRIT02 , O=C1C(=CNc2ccccc2)C=CC=C1N(=O)=O , Pccn ,1,0,1.44044700856,0.7164042087420001
3492, JITWUE03 , Cc1cc(C)c(c(C)c1)C(O)=CC(=O)c1ccccc1N(=O)=O , Pbca ,1,0,1.33444863816,0.7120298491629999
3494, HUSZEC , O=C1OC(C=C1Cc1ccccc1)=Cc1ccc(cc1)N(=O)=O , Pnma ,1,0,1.3425257404700002,0.658248550158
3495, HONHOJ , O=C(C=Cc1ccc(cc1)N(=O)=O)c1cccnc1 , P21 ,0,0,1.41650866959,0.7074618929459999
3497, ABORIS , CC(C)C1CCC23OC(CCC2=NNc2ccc(cc2N(=O)=O)N(=O)=O)CC13C , P-1 ,1,1,1.31323973558,0.661554505006
3498, EKAWAQ , CON(C)C(=O)C(C)C(OC(=O)c1cc(cc(c1)N(=O)=O)N(=O)=O)C(CC(C)C)c1ccccc1 , P21 ,0,0,1.34474364411,0.697619047619
3499, KEGNUG , CCC1C(=NOC21C1CCC(C)(OC2=O)C1(C)C)c1c(OC)cc(OC)cc1OC , P212121 ,0,0,1.24894957843,0.679798359583
3500, ZZZGUG01 , [O]n1c(ccc2ccccc12)C(O)=O , P21/n ,0,0,1.55036347361,0.75376940133
3501, ZOHSAQ , CC1(C)C2CCC1(C)N(OCc1ccccc1)C(=O)C2C(O)c1ccccc1 , P-1 ,1,1,1.26037788949,0.690206648697
3502, DAFQAD , CCCCOc1ccc(cc1)C1(C)CCC(C)(N1[O])c1ccc(OCCCC)cc1 , P1 ,0,1,1.1534602114799999,0.662912376049
3503, EYOGAC , O=N(=O)c1ccc([O-])c(C=[NH+]CCN2CCOCC2)c1 , P-1 ,1,1,1.37229573606,0.692576559243
3505, FUDVUV11 , OCC1CCCN1c1ccc(cc1)N(=O)=O , P21 ,0,0,1.41347443875,0.6597944097940001
3506, TICJUN , O=N(=O)C1=CN(N=C1N1C=NN=N1)C(N(=O)=O)(N(=O)=O)N(=O)=O , P21 ,0,0,1.8564420959099999,0.7257246376809999
3507, MAVXAL , CON=C1OC(=Cc2ccccc12)c1ccc(OC)cc1 , P21/c ,1,0,1.2546987501,0.656197390572
3508, KESTEK , CCOC(=O)OC(C)N1N=NN=C1C1=C(C=NN1C)c1ccc(cc1)N(=O)=O , P21 ,0,0,1.42826590607,0.6963877084010001
3509, NIBNAQ , CN1CCN(C)CC(C)(C1)NO , P21/c ,1,1,1.19840054856,0.703981302386
3511, MUXNEZ , O=C1C2CCCN2C(N1c1ccccc1)c1ccc(cc1)N(=O)=O , P212121 ,0,0,1.36829965419,0.695537354182
3512, GUPMIN , CC1(C)CC2C(=C1)CC(c1ccccc1)C2(COC(=O)c1ccc(cc1)N(=O)=O)COC(=O)c1ccc(cc1)N(=O)=O , P21/n ,0,0,1.3340760037700001,0.6826919084980001
3513, KATCIS , O=C(CCN1C=NC=N1)c1ccc(cc1)N(=O)=O , P21/c ,1,0,1.4406909224000002,0.702441558442
3514, PEZBOL01 , CCC1=C2NC(=C1CC)C(=C1N=C(C(=C1CC)CC)C(=C1NC(=C(C3=NC(=C2N(=O)=O)C(=C3CC)CC)N(=O)=O)C(=C1CC)CC)N(=O)=O)N(=O)=O , Pna21 ,0,0,1.32886844889,0.679029304029
3515, QOQHOV , CCN(CC)c1ccc2C(=CC3(CC(=NO3)c3ccc(OC)c(OC)c3)Oc2c1)C , P-1 ,1,1,1.27678309348,0.678028803495
3518, AYOYAP , Cc1cc(c(C)c(c1)N(=O)=O)N(=O)=O , P21/c ,1,0,1.5004981447,0.741367507325
3522, WADNOG , COc1ccc(cc1)[N+]1=NOC(=C1)[O-] , P212121 ,0,0,1.52415386278,0.7516393442620001
3523, CIQRIE , O=N(=O)c1ccc(OCCCCOc2ccc(cc2)N(=O)=O)cc1 , P21/n ,0,1,1.3913662844299999,0.6839549339550001
3524, DORJOK , CC(CC(C)(COC(=O)c1ccc(cc1)N(=O)=O)C#N)c1cccc2ccccc12 , P21/c ,1,1,1.2883967708600002,0.671244361349
3525, SENPEH , COC1(C)OC2C(O)CC3CON(C)C3C2OC1(C)OC , P212121 ,0,0,1.3159310746100001,0.688217777507
3526, FECXAN , CC1(C)N([O])C(=N([O])C1(C)C)c1cccc(c1)C#Cc1ccc(cc1)C#N , P21/c ,1,1,1.2470801636,0.675863681063
3528, TIBGET , O=C1Nc2ccc(cc2C21Nc1ccccc1CO2)N(=O)=O , P21/c ,1,0,1.5153589889899999,0.7089203479449999
3529, YAHXOU , CC(C)C(ON=C(c1ccccc1)c1ccccc1)N1N=Nc2ccccc12 , Fdd2 ,0,0,1.2538124774,0.678627804487
3530, CUTKOT , O=C(NCc1ccccc1N(=O)=O)Nc1cccc2ccccc12 , P212121 ,0,0,1.4127292940399998,0.711159263272
3531, BIRJER , CC1(C)C(C#N)C(C#N)C(C)(C)N1[O] , Pbcn ,1,0,1.15970026456,0.641749606388
3533, OLAJAM , CC1(C)OC(=O)C2(C(CC(=O)CC2c2ccc(cc2)N(=O)=O)c2ccccc2)C(=O)O1 , P21/c ,1,0,1.3637684674500001,0.6739741057709999
3534, AFIMOT , ON1C(=O)Cc2ccccc2C1=O , P21/n ,0,0,1.60997168197,0.7764336917560001
3535, LAYSOV , O=N(=O)C1=C(C2=NON=C2N(=O)=O)C(=NN1)N(=O)=O , P21/c ,1,0,1.97905864347,0.769024547804
3536, XESMIT , CN1CCC2(C(C(C3N(CCc4ccccc34)C2=O)N(=O)=O)c2ccccc2)C1=O , Pbca ,1,0,1.40463394281,0.717242452537
3537, QIXLEQ , COc1ccc(C)cc1C1=C(c2cc(C)ccc2OC)C21OC(=O)C(=C2c1cccc(c1)N(=O)=O)c1cccc(c1)N(=O)=O , P4/n ,1,0,1.16409997746,0.583071939715
3539, FOLCAK , CC12CC1CC(CC2=NNc1ccc(cc1N(=O)=O)N(=O)=O)c1ccccc1 , P-1 ,1,1,1.37079677748,0.6866310975609999
3540, IRUXID , OC(C(=O)N1OC2C=CC1CC2N1C(=O)c2ccccc2C1=O)c1ccccc1 , Aba2 ,0,0,1.4362804631600001,0.711327358088
3541, WEMREO , COC(=O)C1=NOC(=C1)C1=Cc2ccccc2O1 , Pbca ,1,0,1.44147873845,0.697716077026
3542, JEHWIC , OCC1OC2C(C1O)N(O)C1CC(=O)NC(=O)N21 , P212121 ,0,0,1.60155011789,0.738013400627
3543, PARGOH , COc1ccc(cc1Cc1cc(ccc1OC)N(=O)=O)N(=O)=O , P-1 ,1,1,1.5100369335,0.73833819242
3544, AFIFUS , CN1CC2(C(Oc3ccccc3C2C21C(=O)Nc1ccccc21)c1cccc2ccccc12)N(=O)=O , P21/n ,0,0,1.3481572996000002,0.674381737476
3545, BUWSAP , CC1(C)CC(C)(c2ccc(cc2)N(=O)=O)c2ccc(cc12)N(=O)=O , P21/c ,1,1,1.3478468552399998,0.6889725942460001
3546, TMPDAC01 , CC1(C)CC(=CC(C)(C)N1[O])C#CC#CC1=CC(C)(C)N([O])C(C)(C)C1 , P21/c ,1,0,1.16192658942,0.691928686213
3548, IQOMIL , O=N(=O)C1C(CC(CC1C1=CC=CO1)=C(C#N)C#N)C1=CC=CO1 , P21/c ,1,0,1.38530896804,0.692481625278
3549, FEGFIG , COC12OC(C)(N=C1c1ccc(cc1)N(=O)=O)C1C2C(=O)N(C)C1=O , P-1 ,1,1,1.45781256654,0.6918564527259999
3550, MPOSUB , CC1(C)CC(CC(C)(C)[N+]1[O-])OC(=O)CCCCCCC(=O)OC1CC(C)(C)[N+]([O-])C(C)(C)C1 , P21/c ,1,0,1.12414520414,0.614245147438
3551, NARNOL , CCOC(=O)C(=NO)C(=O)c1ccccn1 , C2/c ,1,0,1.3905982353600002,0.6926269022310001
3552, LUZGIX , CCOc1cccc2C(C3=CN(CC)c4ccccc34)C3=NOC=C3COc12 , P212121 ,0,0,1.2569485759299999,0.652745212205
3554, YOVHIB , CC(C)ON=C(CN1C=Nc2ccccc12)C1=CC=CO1 , P21/c ,1,0,1.27778450913,0.684473865033
3555, DEWBOW , OC1Nc2ccc(cc2C(=O)N2CCCC12)N(=O)=O , P212121 ,0,0,1.5058889232100001,0.7185633213860001
3556, KABQAH , CCCNc1cc2c(cc1N(=O)=O)C(=O)CC1C(C)(CCCC21C)C(=O)OC , P212121 ,0,0,1.35211182092,0.719404720953
3557, FOKSAA , CN(C)c1nc(nc(N(C)C)c1c1ccc(cc1)N(=O)=O)c1cc(cc(c1)c1nc(N(C)C)c(c2ccc(cc2)N(=O)=O)c(n1)N(C)C)c1nc(N(C)C)c(c2ccc(cc2)N(=O)=O)c(n1)N(C)C , P-1 ,1,1,1.29105758646,0.652021078337
3559, HOHVIL , O=C(NCCOCCOCCOCC#C)C1=CC=C(O1)N(=O)=O , P-1 ,1,1,1.40405098796,0.702502887948
3560, JIWPIO , O=C1NC(CC2CC(=NO2)c2ccccc2)C(=O)N1c1ccccc1 , Pbca ,1,0,1.37191309566,0.699062607171
3561, EDIKUA , Cc1ccc(C)c2C(CCCc12)=NO , P21/a ,0,0,1.22840867139,0.699046018195
3562, IWOPAM01 , COC(=O)c1ccc(NC(=O)c2ccc(c(OC(C)C)c2)N(=O)=O)c(OC(C)C)c1 , P21/c ,1,0,1.31245748532,0.6791941391940001
3563, FUXZIH , CC(Nc1ccc(cn1)N(=O)=O)c1ccccc1 , P21 ,0,0,1.3125636539399999,0.7039310515870001
3564, AMUZOY , COc1ccc(cc1)C(=O)C(=NO)c1ccc(OC)cc1 , P212121 ,0,0,1.3805182966,0.714925116199
3565, BASCAC , O=N(=O)C1=CC=C(O1)c1ncncc1c1ccccc1 , C2/c ,1,0,1.43981288807,0.6941710428389999
3566, BUJNEZ , O=C(ON1C=Cc2ccccc12)c1ccccc1 , P212121 ,0,0,1.3008265676100002,0.686990454076
3567, AFURAW , N#CCC1CCC2(CCc3ccccc23)N1OCc1ccccc1 , P-1 ,1,0,1.18394349252,0.665814151748
3569, MIBFEK , CC(=O)C1Oc2cc(C)ccc2C1CN(=O)=O , P212121 ,0,0,1.3524231608000001,0.6895368782160001
3570, GICTIV01 , O=N(=O)N1C=NC(=N1)N=NC1=NN(C=N1)N(=O)=O , P21/c ,1,0,1.7005306493399999,0.6848149595649999
3572, DAVSUR , CCOC(=O)C(Cc1ccc(OCc2ccccc2N(=O)=O)c(OC(=O)OC(C)(C)C)c1)(NC(C)=O)C(=O)OCC , P21/c ,1,0,1.3318213267799999,0.6911727891159999
3573, HAVCOX , ON1C2=C(C(c3ccc4OCOc4c3)C3=C1CCCC3=O)C(=O)CCC2 , Pna21 ,0,0,1.43180460907,0.7049127252249999
3574, NAQGIX , COC(=O)C1=C(C(=O)OC)C23OC1c1cc(ccc1OCCCCCCCCCCN(C2=O)c1ccccc31)N(=O)=O , P21/c ,1,1,1.2613236561299999,0.637297354787
3575, QIFNOL , CC(C)c1cccc(C(C)C)c1N1C(=O)c2ccc3c4c(cc5C(=O)N(C(=O)c6ccc(c7c(cc(C1=O)c2c37)N(=O)=O)c4c56)c1c(cccc1C(C)C)C(C)C)N(=O)=O , P21/n ,0,0,1.39369334771,0.689327889807
3576, FAYJAR , CCOC(=O)C1=C(N)ON=C1C , C2/c ,1,0,1.2554964903899999,0.625538645691
3577, LOCTUT , NC(=NO)C1=C(N=CN1)C#N , P21/n ,0,1,1.57312249337,0.740694328414
3578, VUXFOL , CC(=O)N1C2=C(CCCC2)C(CN(=O)=O)c2ccccc12 , P21 ,0,0,1.2676305606,0.661587301587
3579, XUQNAY , CC1C2CCC(C)(C)C2C2=C(C)C(CC12)=NNc1ccc(cc1N(=O)=O)N(=O)=O , P21/c ,1,0,1.29484932539,0.672524565382
3580, YOFVOG , Cc1c(C)c2OC(C)(CCc2c(C)c1O)C(=O)NC1CC(C)(C)N(OC(=O)C2(C)CCc3c(C)c(O)c(C)c(C)c3O2)C1(C)C , P21 ,0,0,1.24043812732,0.6824926843629999
3581, NPASPG , NC(=O)CC(Nc1ccc(cc1N(=O)=O)N(=O)=O)C(O)=O , P1121 ,0,0,1.6298483505,0.73223026973
3582, EVUMIR , O=N(=O)c1ccc(cc1)C(c1ccccc1)=C(N(=O)=O)N(=O)=O , P212121 ,0,0,1.4598176703499999,0.673655114445
3583, BUBQEU , CC1=NOCC1=Cc1ccccc1 , Pbca ,1,0,1.26166533339,0.698110438768
3586, LIJQEB , O=N(=O)c1ccc(cc1)C(=CC1=CNc2ccccc12)C#N , P21/c ,1,1,1.3750273173299998,0.686765491453
3587, XEQCEE , O=N(=O)c1ccc(cc1)N1N=C2C3c4ccccc4C(c4ccccc34)C2=N1 , I4/m ,1,1,1.3500951163,0.667091184752
3588, TUQXOU , CCOC(=O)c1cc2cc(ccc2cc1COc1ccccc1)N(=O)=O , P21/c ,1,0,1.44735354575,0.7345131072
3590, MEJGOY , CCOC(=O)N1N=C(OCC)C(Cc2ccc(cc2)N(=O)=O)(C(=O)OCC)C1=C , P21/c ,1,0,1.27329833238,0.63715657133
3591, UZEWUT , O=N(=O)N1C2CCCCC2N=C1C(N(=O)=O)(N(=O)=O)N(=O)=O , C2/c ,1,0,1.5939121325999999,0.679252336449
3592, AHORUM , COC(=O)C1=C(ON=C1N(=O)=O)c1ccc(cc1)N(=O)=O , P21/c ,1,0,1.6413037677200002,0.737256410256
3593, XALNEF , CCOC(=O)C1=CCC2C1C(=O)N(C2=O)c1ccccc1N(=O)=O , P21/n ,0,0,1.42818030236,0.6847186726700001
3594, KEGNOA , COc1cc(OC)c(c(OC)c1)C1=NOC2(C3CCC(C)(OC2=O)C3(C)C)C1C#N , P212121 ,0,0,1.27725397247,0.6745589936380001
3595, CORYIR , O=N(=O)OCC(CON(=O)=O)ON(=O)=O , Pna21 ,0,0,1.8417914819699999,0.7498342332100001
3596, VUXWIW , Cc1ccc(cc1)C(C=CC#Cc1ccccc1)=NNc1ccc(cc1N(=O)=O)N(=O)=O , P21/n ,0,0,1.37384793683,0.6984562901620001
3597, IHENOZ , CCC1N(O)C(COC1=O)c1ccccc1 , P21 ,0,0,1.21387503644,0.643369047619
3598, WANSUZ , CC(C)(C)N([O])c1ccc(cc1c1ccccc1)c1ccccc1 , P21/n ,0,0,2.20809407504,0.711909165126
3600, FEGPAK , CC(C)(C)c1cc2Cc3cc(cc(Cc4cc(cc(Cc5cc(cc(Cc(c1)c2OCCCN1C(=O)c2ccccc2C1=O)c5OCC=C)N(=O)=O)c4OCCCN1C(=O)c2ccccc2C1=O)C(C)(C)C)c3OCC=C)N(=O)=O , P-1 ,1,0,1.2283872276,0.656360769037
3601, REQREL , CC(C)(C)C12NC(C)(C)C(C)(C)N1OC(=C2C(=O)c1ccccc1)c1ccccc1 , P21/c ,1,0,1.15580054463,0.651710180125
3604, BUFJOC , CC(=NOCCCCCCCCON=C(C)c1ccccc1O)c1ccccc1O , C2/c ,1,1,1.2179925171500001,0.676421109754
3606, KUJJIK , CCOC(=O)C12C(CC(O)N1C(=O)c1ccccc21)c1ccccc1N(=O)=O , P-1 ,1,1,1.49720982208,0.717806122449
3607, LUVREZ , CC(=O)N(c1ccccc1)c1ccc(cc1)N(=O)=O , P21/c ,1,0,1.3562404395299998,0.6883709273180001
3608, QECPOD , CC1(C)OCC(O1)C1ON=C(C1O)c1ccccc1 , P212121 ,0,0,1.2925452234600001,0.664165296053
3609, UNUJUJ , CCNC(=O)c1cc(cc(c1)N(=O)=O)N(=O)=O , P-1 ,1,1,1.4924150028799998,0.700048027444
3610, TOZYUE , Cc1ccc(Oc2ccccc2N(=O)=O)c(Oc2ccccc2N(=O)=O)c1 , P21/n ,0,0,1.38631165725,0.668232725255
3613, XIRTIC , CN1c2ccccc2C(C)(C)C21Oc1c(C=C2)c2c(OC3=C2CCCC3)cc1N(=O)=O , P-1 ,1,0,1.50706938743,0.699382006324
3614, WOTVAC , CCCCCCOC(=O)Nc1ccc(cc1)N(=O)=O , P21 ,0,0,1.28470725837,0.678920597173
3615, ZAVJIS , O=N(=O)c1ccccc1NC1=CC(=NN1c1ccccc1)c1ccccc1 , P212121 ,0,0,1.40594215095,0.715022893773
3616, FITLUR , OC(=O)c1ccccc1NC(=O)c1ccc(cc1)N(=O)=O , C2/c ,1,0,1.52230391039,0.723512963214
3617, HEBCHN , CC(OC(=O)c1cc(cc(c1)N(=O)=O)N(=O)=O)C12CCCC1C2 , P21/c ,1,0,1.3797695267899999,0.7010199240989999
3618, COGGEM , O=N(=O)C1=CN(N=NN2C=C(N=C2N(=O)=O)N(=O)=O)C(=N1)N(=O)=O , P21/c ,1,0,1.83041305693,0.7171294117649999
3621, POWJUG , CC1(C)N=C(N([O])C1(C)C)c1nccn1c1cccc(c1)n1ccnc1C1=NC(C)(C)C(C)(C)N1[O] , Pbcn ,1,0,1.2718589416700001,0.667557214659
3622, NURBIM , CC(=O)c1c(C)nc2ccc(cc2c1c1ccccc1)N(=O)=O , P21/c ,1,0,1.41440854262,0.726317132287
3623, TEGMAW , Cc1cc(ccc1N(Cc1ccccc1)Cc1ccccc1)N(=O)=O , C2/c ,1,0,1.24698619931,0.669418564527
3624, ABAHIW , CC(C)OC(=O)c1ccc(cc1)N(=O)=O , P-1 ,1,1,1.39607803377,0.699597787833
3626, MEPPUV , CC(C)C1=CC23CC(C)(C)N=C2c2cc(ccc2NC3(C)CC1=O)N(=O)=O , P-1 ,1,1,1.2548715462200002,0.650807912263
3627, KUBPIG , O=N(=O)N1CCNC1=C(N(=O)=O)N(=O)=O , P42/n ,1,0,1.80048837021,0.739951409135
3628, DUTBUQ , OCC(NC(=O)OCc1ccccc1)C(=O)NN=Cc1ccccc1N(=O)=O , P1 ,0,1,1.4617216574,0.721469622332
3630, NANBIO , CC1(C)CC(=O)C2=C(C1)OC(=NO)C2c1cccnc1 , P21/n ,0,1,1.3502411625200001,0.6961149425290001
3631, SOYVIN , CCN(CC)C(=O)C(=NO)C#N , P21/c ,1,1,1.26092211874,0.673481430059
3633, QEDHAL , O=N(=O)C1=NN(CCc2ccccc2)C=C1 , Pbca ,1,0,1.3992583565099999,0.7235863095239999
3634, HPIOXZ10 , O=C1CC(=NO1)c1ccccc1 , P21/c ,1,0,1.37582816245,0.64944496317
3635, LOLGAV01 , O=N(=O)c1ccccc1N1C=C(N=N1)c1ccccc1 , P21/n ,0,1,1.3830512407,0.68080720928
3636, IQAYIJ , CCC(C(C(Nc1ccc(OC)cc1)c1ccccc1)N(=O)=O)c1ccccc1 , Cc ,0,0,1.2216790563700002,0.672218406593
3637, UDOMUW , CC(=O)NC1CC(C)(C)N([O])C(C)(C)C1 , P21/a ,0,0,1.1553767450499999,0.679347319347
3638, INEKER , COC(=O)CN1C(=O)c2ccccc2C1(O)c1cccc(c1)N(=O)=O , P21/c ,1,0,1.46550717051,0.709505244593
3639, NOSNUE , O=C(OCCON(=O)=O)c1cccnc1 , P21/n ,0,0,1.45384129957,0.667652859961
3640, MUQHIQ , [O]n1nc(C2CC2)n([O])c2ccccc12 , C2/c ,1,0,1.4866150252700001,0.735223624113
3641, FEPMOD , COC(=O)C1(CCCCC1=O)C(CN(=O)=O)c1ccccc1 , P21 ,0,0,1.33409696737,0.7058713020090001
3642, PILVIP10 , COC(=O)c1ccccc1NC(=O)c1ccccc1NC(=O)c1cccc(C(=O)Nc2ccccc2C(=O)Nc2ccccc2C(=O)OC)n1[O] , P2/n ,0,1,1.42025981699,0.7049185032140001
3643, JITWOY , Cc1cc(C)c(c(C)c1)C(O)=CC(=O)c1cccc(c1)N(=O)=O , P21/n ,0,0,1.28183218541,0.661042900477
3645, EWEFOC , CCCCC(=Cc1ccccc1)C(=C)OC(=O)c1ccc(cc1)N(=O)=O , P21/c ,1,0,1.25347651115,0.6792726792730001
3646, FEDREM , O=N(=O)c1ccc(cc1)C1Nc2ccccc2C2OCCCC12 , P-1 ,1,1,1.3093393469299999,0.6642
3647, PODLID , CCOC(=O)C(CCCCCCCCCCCCOc1ccc(cc1)N=Nc1ccc(cc1)N(=O)=O)C(=O)OCC , P21/c ,1,0,1.18414256841,0.5654101053589999
3648, TUNTAX , CN([O])=CC=Cc1ccccc1O , B112/b ,0,0,1.25403878073,0.699750830565
3649, CINVIE , CC1(O)C(N(=O)=O)C(C=C(C1=O)N(=O)=O)(C1CC1)N(=O)=O , P21/n ,0,0,1.59961972333,0.718544807034
3650, ITIFOG , CCCCCCN(CCCCCC)c1ccc(cc1)C#Cc1c(C#Cc2ccc(cc2)N(=O)=O)c(C#Cc2ccc(cc2)N(CCCCCC)CCCCCC)c(C#Cc2ccc(cc2)N(=O)=O)c(C#Cc2ccc(cc2)N(CCCCCC)CCCCCC)c1C#Cc1ccc(cc1)N(=O)=O , P-1 ,1,0,1.18556771872,0.691605172535
3651, EGUXAH , CC(C)C1(C)N(C)C(=O)C(C)(N1O)c1ccccn1 , P21/c ,1,0,1.2457600173999999,0.682864492209
3652, IBOLUI , CC1(C)N=C(N=C(N1[O])c1ccccc1)c1ccccc1 , P43212 ,0,0,1.26411770074,0.673993558776
3653, ECINAH , COC(=O)c1cc(C(=O)c2ccccc2N(=O)=O)c2c3ccccc3OC(=O)c2c1O , P-1 ,1,1,1.53860622183,0.717045454545
3654, ZODLOV , O=N(=O)C(CN=CC(N(=O)=O)(N(=O)=O)N(=O)=O)(N(=O)=O)N(=O)=O , Pbca ,1,0,1.9231773829900003,0.750551076486
3655, AGISUG , COc1c(OC)c2cc(cc3c(OC)c(OC)c4cc(cc1c4c23)C1=NC(C)(C)C(C)(C)N1[O])C1=NC(C)(C)C(C)(C)N1[O] , P21/n ,0,0,1.31308870763,0.6864137563539999
3657, NIPHAZ , None , P212121 ,0,0,1.57352192877,0.740401299106
3658, QUDROX , O=C(c1ccccc1)C1=NOC(=C1N(=O)=O)c1ccccc1 , P21/n ,0,0,1.4154163875,0.690163934426
3659, TEKMIF , COc1ccc(cc1)C=Nc1cccc(c1)N(=O)=O , P21/n ,0,0,1.43217775322,0.7308554216869999
3660, HAVYIM , CCOC(=O)C1=NOC(C1)C1OC2OC(C)(C)OC2C2OC(C)(C)OC12 , P212121 ,0,0,1.30001154807,0.668782271945
3661, OBASOZ , [O-][n+]1c2ccccc2cc2CC3C(Cc4cc5ccccc5[n+]([O-])c34)c12 , P-1 ,1,1,1.39092438519,0.702753807543
3662, GIBVEU , O=N(=O)c1ccc(N2CCCC2)c2c(ccc(c12)N(=O)=O)N1CCCC1 , C2/c ,1,1,1.47111110153,0.741159273627
3664, XENQOZ , O=C(C1C(C(C1c1ccccc1N(=O)=O)c1ccccc1N(=O)=O)C(=O)c1ccccc1)c1ccccc1 , P-1 ,1,0,1.3412795524799999,0.6857409970620001
3666, DEMNIS , CC1=CC(C)(C(=O)C(C)(N(=O)=O)C1(C)N(=O)=O)N(=O)=O , P21/c ,1,0,1.50127444952,0.702404127504
3667, RULKIS , CC(C(=O)Nc1ccccc1)C1=NOC(=N1)C , P21/a ,0,0,1.27523492878,0.6578228839320001
3668, QOCNUT , Cc1cnc(C)c(CC2=CNc3cccc(c23)N(=O)=O)n1 , P-1 ,1,1,1.36365612385,0.688129052791
3670, BURXIW , CC1(C)N([O])C(=N([O])C1(C)C)c1ccc(cc1)c1nc(N)nc(N)n1 , Pccn ,1,0,1.3817743160499998,0.698197749676
3671, COMLOF , CCOC(=O)C(C(CN(=O)=O)C(OC(C)=O)C(OC(C)=O)C(OC(C)=O)C(COC(C)=O)OC(C)=O)=C(C)N , P212121 ,0,0,1.25307099213,0.645185992169
3672, MNPYDO02 , Cc1cn([O])ccc1N(=O)=O , P212121 ,0,0,1.57386625275,0.705470873213
3673, NOJKUU , COC1CCCN2N1C(=O)C1CC(CN1C2=O)OCc1ccc(cc1)N(=O)=O , P212121 ,0,0,1.44958660136,0.7195711041230001
3674, HIHCEH , CC1(C)N([O])C(=[N+]([O-])C1(C)C)C1=CNN=N1 , I41/a ,1,0,1.2726602739700001,0.634070736955
3675, JEGVID , CON1C2C(CCC2N2C=C(N=N2)c2ccccc2)CC1=O , P21/n ,0,0,1.35373668322,0.7394809854600001
3676, KEPFER , COc1ccccc1C1=CC(=NO1)CN1CCNC1=NN(=O)=O , P21/n ,0,0,1.4736324272999999,0.7130296610169999
3677, EWIYAK , Cc1cccc(n1)N1OC2CCC1C(=C2)C , Pna21 ,0,0,1.26834006235,0.6947238156450001
3678, FUWKUE , O=C(CC(CN(=O)=O)C=Cc1ccccc1)c1ccccc1 , P212121 ,0,0,1.26303112741,0.6817231470469999
3679, XAGJIY , CCOC1ON=C(C2ON=C(C12)c1ccccc1)c1ccccc1 , Pbca ,1,0,1.29498100418,0.66383110687
3681, KUKLAE , CC(C)(C)OC1C2CC(C1C=C2)C(=O)c1cc(ccc1O)N(=O)=O , P-1 ,1,1,1.32613716499,0.688196776049
3682, KURJOY , CC1(C)CC(CC(C)(C)N1[O])NC(=O)C=C , P21/c ,1,1,1.19651208439,0.683440880736
3683, DOCXAV , Oc1ccc2ccccc2c1C=NOCCCON=Cc1c(O)ccc2ccccc12 , C2 ,0,1,1.34289532718,0.688348214286
3684, FOXCAY01 , CCOC(=O)C(=Cc1cccc(c1)N(=O)=O)C#N , P-1 ,1,1,1.4031460706099999,0.697959183673
3686, ISPCHX , CC(CN(=O)=O)C1C(CC=C(C)C1=O)C(C)=C , P21 ,0,0,1.1920643154700001,0.661046511628
3688, LEQMUQ , COc1ccc2N(C)C(=O)C(c2c1)=C(c1ccccc1)c1ccccc1N(=O)=O , P21/c ,1,0,1.32015269929,0.669093953371
3689, XEBRIG , CN(C)c1cccc2c([NH+]=Cc3cc(ccc3[O-])N(=O)=O)ccc(N(C)C)c12 , P-1 ,1,1,1.38041476655,0.715758896151
3690, HIMWIJ , COc1cc(ccc1O)C=Cc1ccc(cc1)N(=O)=O , Pbca ,1,0,1.3986827004,0.6605272596840001
3691, GEDWIV , CC1(C)C(=O)C(C)(C(=C(C#N)C1(C)N(=O)=O)C#N)N(=O)=O , P212121 ,0,0,1.43452336312,0.6973522167489999
3693, IHOGIV , CC(OC(=O)c1ccc(cc1)N(=O)=O)C(C(C#N)C(OC(=O)c1ccc(cc1)N(=O)=O)c1ccccc1)c1ccccc1 , Pca21 ,0,0,1.30149237772,0.650379087278
3694, KUVTEC , COc1ccc(cc1)c1ccc(NNc2ccc(cc2N(=O)=O)N(=O)=O)c(CCC(C=CC)C2(CC2)c2ccc(OC)cc2)c1 , P21/c ,1,0,1.27866422859,0.679726994042
3696, WOMSAS , COC(=O)C1=C(C(=O)OC)C2(CN(C(N2O1)c1ccccc1)c1ccc(OC)cc1)c1ccccc1 , P-1 ,1,1,1.33465072013,0.6819171304889999
3697, WISBIJ , COc1ccc(cc1)N1C=C(N=C1C)N(=O)=O , P21/c ,1,0,1.3539586636399998,0.676184920915
3698, KUYYIN , O=N(=O)c1cc(c(C=Cc2ccccc2)c(c1C=Cc1ccccc1)N(=O)=O)N(=O)=O , P-1 ,1,1,1.43854402338,0.69473003848
3699, VIJCEY , CC(C)(C)c1ccccc1N(Cc1ccccc1)C(=O)C1CC(=NO1)c1ccccc1 , P21/n ,0,0,1.20305322364,0.65892028392
3700, CAZBZO11 , [O]N(c1ccccc1)=N([O])c1ccccc1 , Pbcn ,1,0,1.3364377146,0.686359502435
3701, OMINIJ , O=C(Cc1cc2C(=O)NC(=O)c2cc1N(=O)=O)c1ccccc1 , P21/n ,0,0,1.57623590479,0.74189887198
3704, CIYKUR , O=N(=O)c1c2CN3CCN(CC3)Cc3cccc(CN4CCN(CC4)Cc4cccc(CN5CCN(CC5)Cc1ccc2)c4N(=O)=O)c3N(=O)=O , P-1 ,1,1,1.30155333531,0.673510616368