ID,name,smiles,space_group,inversion_symmetry,beta_packing,density,packing_coefficient
468, IPUWOG , CC(C)(C)OC(=O)NC(CO)C(=O)NN=Cc1ccccc1N(=O)=O , P21 ,0,0,1.4321177484999998,0.720739064857
469, UHUHEK , COc1ccc2OC(C(=Cc2c1)N(=O)=O)C12OCC3OC(C)(C)OC3C1OC(C)(C)O2 , P21 ,0,0,1.4026812212900002,0.701388888889
470, ZENQDX01 , ON=C1C=Cc2ccccc2C1=NO , C2/c ,1,0,1.39598234897,0.689811939268
471, AWUSAM , O=N(=O)c1ccc(cc1)C(c1ccccc1)(c1ccccc1)c1ccc(cc1)N(=O)=O , P21/n ,0,0,1.38552841846,0.704876463969
472, GALTUK , CCOC(=O)C(C)C1CCC(C(C1N(=O)=O)c1ccc(OC)cc1)N(=O)=O , P21/c ,1,0,1.35395326253,0.697074003249
473, QEGQOL , CCC(c1ccccc1)=N([O])C1CC1(C)c1ccccc1 , P21/c ,1,0,1.21293375372,0.6892358519670001
474, LODCOW , CCCCC1=CC(CCC1(C)CC(=O)OC)OC(=O)c1ccc(cc1)N(=O)=O , P-1 ,1,1,1.22734345027,0.651762315502
475, UDUGIM , CC1ON2CCc3ccccc3C2C2=CC3=C(CCCC3)N12 , P21/c ,1,0,1.28013904427,0.6951550387600001
476, SOBFOF , O=N(=O)c1ccccc1C1=C2CCCc3cccc(N4C=CC=C14)c23 , P21/c ,1,0,1.3956206046200001,0.7375446891940001
477, BATWOJ , COC(=O)c1cc2CCc3ccc(CCc1cc2)c(c3)N(=O)=O , P212121 ,0,0,1.40440049479,0.711479575563
479, PYRCOX01 , ON=Cc1ccncc1 , P212121 ,0,0,1.31135675419,0.686011904762
480, XIKBOK , CC1=C(C(C2=CCCCC2=O)c2ccccc2N(=O)=O)c2ccccc2N1 , P21/n ,0,0,1.3078343363,0.6935118695620001
481, DNBZPY , O=N(=O)c1ccc(Cc2ccccn2)c(c1)N(=O)=O , P21/c ,1,1,1.4613699204700001,0.6937221011110001
482, QUBJII , CC1(C)CC([N+](=C1c1ccccc1)[O-])C(=NO)c1ccccc1 , P-1 ,1,1,1.11239846951,0.59645747834
484, BOPGAO , CC(=O)OC1CC(N(O1)c1ccccc1)c1ccc(cc1)N(=O)=O , Cc ,0,0,1.3667393404600001,0.686947703897
485, UFOCIE , O=C(OCC1C2CC(CN(C2)Cc2ccccc2)C2=CC=CC(=O)N12)c1ccc(cc1)N(=O)=O , P21 ,0,0,1.3922010676499998,0.7104640151520001
486, NIKJOJ , ON=Cc1ccc(O)cc1O , P21/c ,1,0,1.51559071098,0.730792234082
487, GAHKAB02 , CN(C)c1ccc(cc1NC(C)=O)N(=O)=O , P21 ,0,0,1.36620481409,0.687844352617
489, MADMEL , CC(=O)ON=C1OC2(CCCCC2)C=C1 , P21/n ,0,0,1.25664990516,0.670218964779
490, LIHLUM , O=C1CC2CCCC2CN1OCc1ccccc1 , P-1 ,1,0,1.2754085885,0.7155395417589999
491, IHOGER , CC(OC(=O)c1ccc(cc1)N(=O)=O)C(CC#N)c1ccccc1 , C2/c ,1,0,1.2718780647399999,0.652442691078
492, MUBTEJ , O=N(=O)c1ccc(C=Cc2ccc(cc2)C=Cc2ccc(cc2)N(=O)=O)cc1 , P21/c ,1,0,1.42438864821,0.730898191425
493, RIJMOM , OCC1OC(CC1O)N1C=Cc2cc(ccc12)N(=O)=O , P212121 ,0,0,1.44696655466,0.6953823953820001
495, CAGGOH , [O-][n+]1ccc2ccccc2c1N1N=Nc2ccccc12 , Pca21 ,0,0,1.4830676088499999,0.728635391607
496, RAHJAL , CCCCN1C(=O)NC2(CC3(CC(=NO3)C(=O)c3ccccc3)C2)C1=O , P-1 ,1,1,1.3616888453799998,0.707967476894
497, FIDPIR , N1N=NC2=NC3=NON=C3N=C12 , P212121 ,0,0,1.8341033076099997,0.725970017637
498, CEDVAK , CC(=O)C1C(c2ccccc2)C2=C(C)ON=C2CC1(C)O , P21/c ,1,0,1.26046392309,0.668622919581
499, TISMUE , Cc1ccc(cc1)C1CC(N(O1)C(C)(C)C)c1ccccn1 , P-1 ,1,1,1.1121853371600001,0.628024094006
500, NAPXEK , CC1=C(N=NN1C(=C)c1ccccc1)c1ccc(cc1)N(=O)=O , P21/c ,1,1,1.3072000383700002,0.664241164241
501, MIGNUM , ON=Cc1cccc(O)c1O , P21/c ,1,0,1.49235753635,0.721609907121
503, MUDWIR , CN(C)C(N(C)C)=C(C=C1C(=O)OC(C)(C)OC1=O)N(=O)=O , P21/n ,0,0,1.34111797456,0.6702879993699999
504, HUKVAL , O=N(=O)NCC(CNN(=O)=O)NN(=O)=O , Pnma ,1,0,1.7529588182900002,0.74141923436
505, IJIQEX , OCCNC=C1C=C(C=CC1=O)N(=O)=O , Pbca ,1,0,1.4228685559399998,0.643564667778
506, IDIKEL , CC1=CC(=O)c2cc3OC(=C(c3cc2O1)N(=O)=O)C , P21/c ,1,0,1.53094336338,0.7114947124600001
507, GOMJIC , COC1OCC(OCc2ccccc2)C(OCc2ccccc2)C1CN(=O)=O , P21 ,0,0,1.29467301986,0.69392665692
509, MOVHOV , CCCN1C(OC(C#N)(C#N)C1c1ccc2OCOc2c1)c1ccc(cc1)N(=O)=O , Pbca ,1,0,1.4201053902599998,0.709386135407
510, GENXOM , CCCOc1c2Cc3cc(cc(Cc4cccc(Cc5cc(cc(Cc1ccc2)c5O)N(=O)=O)c4OCCC)c3O)N(=O)=O , P21/n ,0,0,1.3727428013,0.696904776479
512, TIQQIV , COC(=O)C12CN(CC3=NOC(=N3)c3ccccc3)CC(C(N(Cc3ccccn3)C1c1ccccn1)c1ccccn1)(C(=O)OC)C2=O , P21/c ,1,0,1.3469416357100001,0.677564637198
513, NOSBUD , None , P21/c ,1,0,1.07989119661,0.6740645161290001
514, XEMNOU , COC1=CC2CN(C)CC2(C2=NON=C12)N(=O)=O , P21/c ,1,0,1.4500476211200002,0.6894349942300001
515, FIDZID , CCOC(=O)C12CCCCC31OC3CN(O2)C(=O)OC(C)(C)C , P21/c ,1,0,1.30957657093,0.6964716981129999
516, FEQCEL , CC(C1C(C(CC(=O)c2ccccc2)c2ccccc12)C(=O)c1ccccc1)N(=O)=O , P21/n ,0,0,1.28406443287,0.672132574247
517, MABZOX01 , CN(C)c1ccc(cc1)C=NO , P21/c ,1,0,1.19775051349,0.662410394265
519, LUDREI , COC1=NC(C(O)C2=NOC(C2)c2ccccc2)C(=NC1C(C)C)OC , P212121 ,0,0,1.23304648413,0.654505888377
520, QUMMER , CC1(C)OC2OC3COC(O)(Cc4cccc(c4)N(=O)=O)CC3(O)C2O1 , P212121 ,0,0,1.3882535547400001,0.666669624004
521, NNTSED10 , O=N(CCN(=O)=O)N(=O)CCN(=O)=O , P21/n ,0,0,1.64043780988,0.718107606679
522, SIMXAO , COc1c(c(C)c2N3CN(Cc2c1N(=O)=O)c1c(C)c(c(OC)c(c1C3)N(=O)=O)N(=O)=O)N(=O)=O , P212121 ,0,0,1.55682245225,0.712290855597
523, REFROJ , CC(=O)OCC1(C)N=C(C)C(C)(C)N1[O] , P-1 ,1,1,1.1714568991399998,0.627210982312
524, WAWXAV , O=N(=O)C1=CC=C(O1)C1CC2Cc3ccccc3N1O2 , P21/c ,1,0,1.46376808616,0.7124418374420001
525, CUKCAM02 , OC(=O)c1cc(cc(c1)N(=O)=O)N(=O)=O , C2/c ,1,0,1.6829298800799999,0.7293555501100001
527, SABJEM , COC(CN1CCN2C(O)CCC(=C12)N(=O)=O)OC , P21/c ,1,0,1.3552622442200002,0.680544961437
528, SAFMAQ01 , O=N(=O)c1cc2N=NNc2c(c1)N(=O)=O , Pna21 ,0,0,1.69348555929,0.712005327245
529, TEHLOH , CC(OCc1ccccc1)C1CC1C(C)=NNc1ccc(cc1N(=O)=O)N(=O)=O , P21/c ,1,0,1.317919101,0.669641102699
530, RACKUE , Cc1[n+]([O-])c(c(C)c2ccccc12)c1ccccc1 , P21/c ,1,0,1.2873861525399999,0.707911361883
531, HIVZES , CN([O])=NNc1ccccc1 , P21/n ,0,0,1.25678165599,0.654961685824
532, AKEQIS , COc1ccc(CCNc2ccc(cc2N(=O)=O)N(=O)=O)cc1OC , P21/c ,1,0,1.47539112599,0.7290535778910001
533, BNPQOX , CC(C)(C)c1ccc2c(C=CC(=O)C2=NO)c1 , P21/m ,0,1,1.2491182012200002,0.622348939576
534, GAZBEQ , COC(=O)c1cnc(cc1C(=O)OC)c1ccccc1N(=O)=O , P21/n ,0,0,1.42218025404,0.686778455285
536, NITPOL09 , Oc1ccc(cc1)N(=O)=O , P21/n ,0,0,1.46825690739,0.701214285714
537, UDAVAZ , CC1(C)N([O])C(=[N+]([O-])C1(C)C)C1=Nc2ccccc2N1C=C , P21/c ,1,0,1.27877467504,0.673755892644
538, EDETOX , CC12CCC3C(CCC4=CC(=O)CCC34)C1CCC2OC(=O)c1ccc(cc1)N(=O)=O , P212121 ,0,0,1.26822639788,0.665710964742
539, WUWHOM , O=C1OCC(CC2CC12N(=O)=O)N1C(=O)c2ccccc2C1=O , P21/c ,1,0,1.5353543730599999,0.7249408073029999
540, PUVPUR , O=N(=O)c1ccccc1Oc1ccccc1Oc1ccccc1N(=O)=O , P212121 ,0,0,1.47409736741,0.705900497512
541, TIGZIT , CC(C)OC(=O)C(=Cc1cccc(c1)N(=O)=O)C(C)=O , P-1 ,1,1,1.3351047635200002,0.6823908174690001
542, LIFVOO , O=C1C(N=[N+]=[N-])C(COC(c2ccccc2)(c2ccccc2)c2ccccc2)N1OCc1ccccc1 , P21 ,0,0,1.27689859674,0.6727356824490001
543, SOFKOO , COC(=O)c1c(O)c(C)c(C)cc1c1ccc(cc1)N(=O)=O , P21/n ,0,0,1.4123486721599998,0.7138009049770001
545, BIZHAT , CC1=CCC(C)(C)C=CCC(C)(C(CC1)N(=O)=O)N(=O)=O , P21/n ,0,1,1.20698659884,0.665621415621
546, PICANO , OC(=O)c1cccc[n+]1[O-] , P21/m ,0,1,1.5104049956999999,0.702743902439
547, ZZZVIU01 , O=C1c2ccc(cc2C(=O)c2cc(ccc12)N(=O)=O)N(=O)=O , P21/c ,1,0,1.678269571,0.7322710718000001
548, NEZRUH , C=CCOC1OC(COC(=O)c2cc(cc(c2)N(=O)=O)N(=O)=O)CC2C1CCN2C(=O)c1cc(cc(c1)N(=O)=O)N(=O)=O , P212121 ,0,0,1.50178556704,0.694358445132
549, USAHAY , O=N(=O)c1ccc(cc1)N1OC2CCC1C=C2 , P21 ,0,0,1.44226827986,0.7241519256610001
551, DOXZOF , ON=C1Cc2ccccc12 , P21/c ,1,0,1.29637197217,0.685294503476
552, YUTTOY , CC(C)(C)N([O])c1cc(cc(n1)N([O])C(C)(C)C)c1c2ccccc2cc2ccccc12 , P-1 ,1,1,1.25158217031,0.686554970247
553, SODJAX , CC1CC=CCCC=CC(Cc2cc(O)cc(O)c2C(=O)O1)=NOCC(=O)N1CCCCC1 , P21 ,0,0,1.34529093837,0.7157877604170001
554, MUWZOV , CC1(C)CC(N2OCC3CCCC123)C(=NO)c1ccccc1 , P21/c ,1,0,1.19655229505,0.655891860123
555, QECPAS , NC(=NO)C1=NN2N=NN=C2N=C1N , P21/n ,0,0,1.73100477482,0.7281959378730001
556, KUBPEC , O=N(=O)N1CC2(CN=C1C(N(=O)=O)(N(=O)=O)N(=O)=O)CN=C(N(C2)N(=O)=O)C(N(=O)=O)(N(=O)=O)N(=O)=O , Pcab ,0,0,1.8065416313900002,0.707240396896
557, JAYGEW , OC(=O)C=CC(=O)Nc1ccc(cc1)N(=O)=O , P21/c ,1,0,1.5358707636500002,0.711869496963
558, AZAXEG , O=C1CN(N=CC2=CC=C(O2)N(=O)=O)C(=O)N1 , P21/c ,1,1,1.64173775393,0.721617161716
559, SOYVEJ , ON1C=CC=C(C(O)=O)C1=O , Pca21 ,0,0,1.67636486428,0.7508440913600001
560, FUWNIU01 , [O]N(=O)OCCNC(=O)c1cccnc1 , P21/c ,1,0,1.46740063983,0.7042391030490001
561, PIBGUD , CC(C)N(C(C)C)C(=O)C=[N+]([O-])c1ccccc1 , P2/c ,1,0,1.15845968215,0.660973191585
562, PEFNAP , O=N(=O)c1ccc(cc1)C1NCCC(O1)c1ccccc1 , P-1 ,1,1,1.32655921796,0.663179413179
563, JUZHET , COc1c(OC)c2ccc(N([O])C(C)(C)C)c3c(OC)c(OC)c4cccc1c4c23 , P-1 ,1,1,1.3026594923100001,0.684146042637
564, UREXOF , CNC1=C(C(CN(=O)=O)c2cc(OC)ccc2O1)N(=O)=O , P21/n ,0,1,1.52543116038,0.7140833333329999
565, VUZVIW , O=N(=O)c1ccc(cc1)C1=NN(C(C1)c1c2ccccc2cc2ccccc12)c1ccccc1 , Pca21 ,0,0,1.36407186727,0.702749845353
566, BUNCIW , CC1(C)C(=O)C(C)(C(=C(N(=O)=O)C1(C)N(=O)=O)N(=O)=O)N(=O)=O , P21/c ,1,0,1.5750100085499998,0.719310522254
567, PUMSUM , CN1c2ccccc2N=C1C1=N([O])C(C)(C)C(C)(C)N1[O] , P21/n ,0,0,1.25521911279,0.656107132743
568, YEYTIG , O=C(Nc1ccc(Oc2ccc(cc2)N(=O)=O)cc1)c1ccc(cc1)N(=O)=O , P212121 ,0,0,1.50099363466,0.7180986202799999
569, MEYNEM , Cc1nc(c(C)nc1C1=N([O])C(C)(C)C(C)(C)N1[O])C1=N([O])C(C)(C)C(C)(C)N1[O] , P21/n ,0,0,1.29609438195,0.6863885918000001
570, VUKHIS , CC(=O)N(C(C)=O)c1ccccc1c1ccccc1N(=O)=O , P21/a ,0,0,1.35083043886,0.684642773729
571, AFITIU , CC(C)C1C(N(C)C(CC1=NOC(=O)c1cccc(C)c1)c1ccccc1)c1ccccc1 , P-1 ,1,1,1.1686113840299999,0.649460241013
573, ZELNOT , CC1=NC2=C(C(=O)ON2C=C1)c1ccccc1 , P21/n ,0,0,1.37437059081,0.686090597855
574, GUVDIK , O=C(Nc1cc(cc(c1)N(=O)=O)N(=O)=O)C1=C(c2ccccc2)C(=C(N1)C(=O)Nc1cc(cc(c1)N(=O)=O)N(=O)=O)c1ccccc1 , P21/c ,1,0,1.57194232757,0.72944229595
575, FELCIK , C1NOC2CONCC2=C1 , P212121 ,0,1,1.41556373705,0.7232358836130001
577, YIVFUF , OCC1OC(CC1O)OCc1ccccc1N(=O)=O , P21 ,0,0,1.45641687982,0.7140662716699999
578, KAYWIR01 , CNC1=NC(=NO1)N(=O)=O , P21/c ,1,0,1.66831270771,0.7203155818539999
579, HEVVEJ , C1CC2CC1C1ON=C(C21)c1ccccc1 , P21/n ,0,0,1.2579463765,0.675867036312
580, BOWJIH , CC(N1CCC(C)(O)C(C1c1ccccc1)N(=O)=O)c1ccc(cc1)N(=O)=O , P21/n ,0,0,1.31311580041,0.674256516706
582, OHMISX , CC1(O)ON=C(c2ccccc2)C1(O)c1ccccc1 , Pbca ,1,0,1.28622517612,0.667118226601
583, SIBZUB , [O-][n+]1cccc2cccc(C3CC4OC3c3ccccc43)c12 , P21/n ,0,0,1.39785810318,0.711696672122
584, RUTDAL , COC1N(C(C)=O)C(=NC(=NC(C)=O)C2=C1ON=C2C)OC , C2/c ,1,0,1.31892464527,0.644456401519
585, DUTKOU , COc1ccc2N(OC3CCCCC3)C(C3CCCCC3)(C3CCCCC3)C(=O)c2c1 , P-1 ,1,1,1.21158201787,0.683655888128
587, NUNFOT , CCOC(=O)C1=C(C)NC(=O)NC1c1ccccc1N(=O)=O , P21/c ,1,0,1.45208630329,0.7093442622949999
588, CUNTUA , CC(=NNc1ccccc1N(=O)=O)C(C)=NNc1ccccc1N(=O)=O , P21/n ,0,0,1.48045657491,0.721795833574
589, DAWDOV , CC1(C)N([O])C(=N([O])C1(C)C)c1ccc(cc1)C(=O)Oc1cc(ccc1C1=N([O])C(C)(C)C(C)(C)N1[O])C1=N([O])C(C)(C)C(C)(C)N1[O] , P-1 ,1,1,1.31297079744,0.675591012724
590, VAWWEV03 , COCCOC(=O)C1=C(C)NC(=C(C1c1cccc(c1)N(=O)=O)C(=O)OC(C)C)C , P212121 ,0,0,1.34696606941,0.6956422310699999
591, CAHDAT , CN1OCC2COc3ccc(C)cc3C12C , P21/c ,1,0,1.24070285052,0.6688706490349999
592, FUHCOB , Cc1ccc(cc1)C=NOCCCON=Cc1ccc(C)cc1 , C2/c ,1,1,1.18438817641,0.660983606557
593, PIVRER , COC1CC2CCC1(C(=O)N1C3C(ON(Cc4ccccc4)C3c3ccccc3)OC1=O)C2(C)C , P212121 ,0,0,1.2487380083700002,0.683947929284
594, KOVGUX , O=N(=O)C(=C(Nc1ccccc1)Nc1ccccc1)N(=O)=O , P21/c ,1,0,1.4031673248899998,0.674327025769
595, BAYZOT , CC1CCC(C(C)C)C(C1)c1c(C)cc(C)cc1OC(=O)c1cc(cc(c1)N(=O)=O)N(=O)=O , P21 ,0,0,1.29061911386,0.682539364156
596, DACNCP , CC(O)=C1C=C(C=C1C(C)=O)N(=O)=O , P21/c ,1,1,1.4583466633700002,0.7154866167209999
597, PICROL , CC(C)c1cccc(C(C)C)c1[N+]1=NN(C)C(=C1N=N[O-])c1ccccc1 , P21/c ,1,0,1.24400993705,0.695003247201
600, VUWJUT , CCCCCCCC(=O)NO , P21 ,0,0,1.18127795866,0.6965140941429999
601, YALFID , O=N(=O)c1ccccc1OCc1ccc(COc2ccccc2N(=O)=O)cc1 , P21/n ,0,0,1.4860925211899998,0.739281618089
602, AQADOM , CC(=O)C1=C(C)OC(=NO)C1c1ccccc1 , P21/n ,0,0,1.29150485655,0.664861379755
603, NANILI , Nc1ccc(cc1)N(=O)=O , P21/n ,0,0,1.42645897516,0.6924957045710001
604, PIRZEX , COc1ccc2NC(c3ccccc3N(=O)=O)C(C)(C)C(O)c2c1 , Pbca ,1,0,1.3138950196999999,0.698394538606
605, OXAKEF , O=N(=O)c1ccc(cc1)C#CC#CC#CC1=CC2=C(CCCC2)N1Cc1ccccc1 , C2/c ,1,0,1.33360069543,0.7233000333
606, KODJAO10 , OC(=O)C=Cc1ccc(cc1N(=O)=O)N(=O)=O , P21/n ,0,0,1.63688974131,0.74257362356
607, MAMGEM , O=N(=O)C(=C(c1ccccc1)c1ccccc1)N(=O)=O , P21/c ,1,1,1.3504165052500001,0.6613696862139999
608, LUVPEY , CN(CNC1=NN=NN1C)N(=O)=O , P21/c ,1,0,1.525092533,0.7161814843950001
609, MTNANL01 , CN(c1c(cc(cc1N(=O)=O)N(=O)=O)N(=O)=O)N(=O)=O , P1121/b ,0,0,1.72921099775,0.715123574279
610, FAHZUJ , COc1ccc(cc1)C1=C(N=C(N1)c1ccc(cc1)N(=O)=O)c1ccc(OC)cc1 , Pbca ,1,0,1.37013674758,0.6983643724699999
612, SESVIW , CC1(C)CC(=O)C2=C(C1)N(C1CC1)C1=C(C2c2ccc(cc2)N(=O)=O)C(=O)c2ccccc12 , C2/c ,1,0,1.34853595149,0.6975377999719999
613, DAWPIA , CC(C)(C)C1=CC(C(=O)C(C)(O)C1N(=O)=O)(N(=O)=O)C(C)(C)C , Pbca ,1,0,1.31770345135,0.6846505570550001
615, YABFOZ , O=CC1C(C1c1ccc(cc1)N(=O)=O)C1=Nc2ccc(cc2O1)N(=O)=O , P21/c ,1,1,1.5589814962900002,0.726508097166
616, NOHDFR , COC(=O)C1(OC(C=C1)N(=O)=O)OC(C)=O , P-1 ,1,1,1.5028958184099999,0.642128603104
617, WIJMEH , Cc1ccc(cc1N=C=C(C=C(C#N)C(C)(C)C)C(C)(C)C)N(=O)=O , P-1 ,1,1,1.14580544963,0.668623879424
619, QAQPON , COc1ccc(cc1)C1=C(ON=C1C#N)C#N , P21/n ,0,1,1.36432533519,0.688408241279
620, CUHGES , COC(=O)C(Cc1ccccc1)=NO , P21/n ,0,0,1.28746218715,0.7199062729719999
621, BAWZIJ , CC(C)C1N(C(=O)OC1(c1ccccc1)c1ccccc1)C(=O)C(C)CN(=O)=O , P212121 ,0,0,1.2149374875499999,0.632674571805
622, UGIRIM , [O]N(=NC1=C2N=CC1=C(C1=CC=C(N1)C(=C1C=CC(=N1)C(=C1NC(=C2c2ccccc2)C=C1)c1ccccc1)c1ccccc1)c1ccccc1)c1ccccc1 , P21/n ,0,0,1.3125511543100001,0.6781090909090001
623, WADBEK , O=C(Nc1ccc(cc1)N(=O)=O)c1cc(cc(c1)N(=O)=O)N(=O)=O , P21/c ,1,0,1.65465035398,0.738782788771
624, SAKDOZ , O=COCC(=O)c1ccc(cc1)N(=O)=O , P21/c ,1,0,1.49861616611,0.707253625134
625, DAFBOB , CN1CCCC1=CN(=O)=O , P21/c ,1,0,1.38801495627,0.7380942275040001
626, HIZTEQ , O=N(=O)[N-][N+]1=NNC=C1 , P21/n ,0,0,1.7957380867700001,0.7585890250470001
627, WIJCOH , CN(c1ccccc1)C(=CC=Cc1ccccc1N(=O)=O)C#N , P21/c ,1,0,1.3637595420500002,0.699476923386
628, CIFROY02 , O=N(=O)C1=NNC=N1 , P41212 ,0,0,1.7202650444099998,0.7219248120300001
629, KOVHEI , None , Pnma ,1,1,1.82581361449,0.782811194653
630, EFAXOY , CC(C)(C)C1CCC(CC1)Oc1c(cc(cc1N(=O)=O)N(=O)=O)N(=O)=O , P21/c ,1,0,1.37152258942,0.686305114638
631, POKRIS , COc1ccc(cc1)C1C(CC(=C(c2ccccc2)C1(C#N)C#N)c1ccccc1)N(=O)=O , P21/n ,0,0,1.3137992786700001,0.690623552693
632, MAZWUG , CCOC(=O)C1=C(C)NC(=C(C1C1=CC=C(O1)N(=O)=O)C(=O)OCC)C , P21/c ,1,0,1.4225657083899999,0.71359487928
634, PMNBOX , CC1(C)CCCC2(C1)C1CCC2(C)C(C1)=NO , P21/c ,1,0,1.1138245015000001,0.6620601473
637, LAPTEC , [O]N1OC(=C2CCCC3C(=NOC123)c1ccccc1)c1ccccc1 , P21/c ,1,0,1.3259736972299998,0.6895496406110001
638, GAVKIX , CC1=N([O])ON=C1N , P21/n ,0,1,1.50814959421,0.698619257087
639, RINYOC , [O]N(=CC1=CC=C(O1)N(=O)=O)c1ccccc1 , Pbca ,1,1,1.45347709634,0.6993712964300001
640, ONABAH , O=N(=O)c1ccccc1NC1=NN=C(O1)c1ccccc1 , Pca21 ,0,0,1.4611379697,0.6995280764640001
641, YAZZIL , CN1CC(C(N(=O)=O)C21c1ccccc1c1nc3ncccc3nc21)c1ccccc1 , P21/n ,0,0,1.3463232596599999,0.67547680176
642, HETMEY , CC(C1OC2OC(C)(C)OC2C1OCc1ccccc1)N([O])=Cc1ccccc1 , P212121 ,0,0,1.2402073734399999,0.6549161807580001
645, JONWIU , Cc1cc(c(C)cc1N(=O)=O)N(=O)=O , P21/n ,0,0,1.52955832667,0.737025089606
646, NONYOE , COC1CC(C)(C(O)C(C)O1)N(=O)=O , P21 ,0,0,1.31965974009,0.6746332332070001
647, VOGCOL01 , CCOC(=O)C1=NOC(=C1)CCCOc1c(C)cc(cc1C)C1=NOC(=N1)C , P21/c ,1,0,1.3126774264799999,0.6845554711249999
648, ALOFUE , OC(CN(=O)=O)C1=COc2cc(OCc3ccccc3)ccc2C1=O , P21/c ,1,0,1.4267297900600002,0.699974876314
649, BOPBIR , CC(=O)OC1CC(N(O1)c1ccccc1)c1ccccc1 , P21/c ,1,0,1.28857419567,0.682433166971
650, QUCJEE , CC(=NO)c1ccc(cc1)N=Cc1ccc(cc1)N(=O)=O , P212121 ,0,0,1.4012273976299998,0.707389742684
651, VITNIW , CON=C(N=[N+]=[N-])c1ccc(cc1)N(=O)=O , P21/c ,1,0,1.5481483892899999,0.7323576922149999
652, RAKMUM , CNc1ccc(c2cccc(N(C)C)c12)N(=O)=O , P21/n ,0,0,1.3660711830599999,0.7117697541079999
653, REWWAR , CCC1OC2=C(C3C(C)CC(C)CC13C)C(=O)N(O)C=C2 , R3 ,0,0,1.21013993489,0.659518366103
654, ETIXIO , OC1C(O)C(O)(COC1OCc1ccccc1)CN(=O)=O , P21 ,0,0,1.5208045869799998,0.7360879185100001
656, HOFFOX , CCC1(CCC(=O)NC1=O)c1ccc(cc1N(=O)=O)N(=O)=O , P-1 ,1,1,1.50211369655,0.7100775193800001
657, PUBMUU24 , O=N(=O)N1C2C3N(C1C1N(C(C(N3N(=O)=O)N1N(=O)=O)N2N(=O)=O)N(=O)=O)N(=O)=O , Pca21 ,0,0,1.9882553476599998,0.729264278901
658, NOSLEM , Nc1cc(c(cc1N1CCOCC1)N1CCOCC1)N(=O)=O , P212121 ,0,0,1.2844729091,0.637519425019
659, UDEYEJ , O=N(=O)N(CC(N(=O)=O)(N(=O)=O)N(=O)=O)C1=NON=C1C#N , P21/n ,0,0,1.9192654316599997,0.75453225178
660, YUFLAM , ON=CC1=NC=CN1Cc1ccccc1 , P212121 ,0,0,1.29620249223,0.627514880952
662, TECSUQ , CN1N(c2ccccc2)C(=O)C(=C1C)N=Cc1cccc(c1)N(=O)=O , P21/c ,1,1,1.3281945015899999,0.6730137233660001
663, GAMVUO , CC(C)c1cc(C)c2ccc(C)c(C(C)=O)c2c1N(=O)=O , P21/n ,0,0,1.28929996509,0.712411067194
664, QIHKUQ , CC(C)(C)OC(=O)C(C#N)(N(O)c1ccccn1)c1ccccc1 , P21 ,0,1,1.17841070916,0.620409744198
665, YUDMOZ , O=N(=O)C12CC3CC(CC1(C3)[N+]([O-])=[N+]([O-])C13CC4CC(C1)CC3(C4)N(=O)=O)C2 , P21/a ,0,0,1.4691762952,0.717227841363
667, RATMUV , COc1ccc(cc1)C(C(C)N(=O)=O)C1(C)C(=O)N(C)C(=O)N(C)C1=O , P-1 ,1,1,1.3459797550100001,0.6788880445800001
668, HUMXIX , CN(C)c1ccc(cc1)C=C1N=C(OC1=O)c1cc(cc(c1)N(=O)=O)N(=O)=O , P21/c ,1,0,1.45933651248,0.6943189856890001
669, RILWAN , O=C1NC(=O)C(Cc2ccccc2)(C(CN(=O)=O)c2ccccc2)N1C(=O)c1ccccc1 , P21 ,0,0,1.32535368812,0.6980329241069999
671, HORWES , NC(=NO)C1=C(N=CN1)C(N)=NO , Pbca ,1,0,1.60383489799,0.733074534161
672, SEMTAF02 , OC(=O)Cc1ccc(cc1)N(=O)=O , P21/c ,1,0,1.51730889285,0.727589950372
673, XUBRES , CC(=O)Nc1ccc(OC(C)=O)c(c1)N(=O)=O , C2/c ,1,0,1.44391869819,0.6936835016840001
675, MAMFOW , Cc1ccc(cc1)C=Cc1ccc(cc1)N(=O)=O , P-1 ,1,1,1.3127843444399998,0.7066030376729999
676, OBAHOQ , CCOC(=O)C1=CC(C#N)(C(=O)OCC)C2(C1c1ccc(cc1)N(=O)=O)C(=O)N(Cc1ccccc1)c1ccccc21 , P21/c ,1,0,1.3547209421200002,0.690133637222
677, KEKRIC , CCOC(=O)C12N3Cc4ccc(cc4CN1C(=O)N1Cc4cc(ccc4CN(C3=O)C21C(=O)OCC)N(=O)=O)N(=O)=O , P-1 ,1,1,1.46398593209,0.682763269528
678, XENJOQ , CC(=O)C1=C(C)NC(=C(C1C1=CC=C(O1)N(=O)=O)C(C)=O)C , P21/c ,1,0,1.37443017136,0.6838814411399999
679, QUNFEL , COC1OC(C2CC3CC(N2O3)c2ccccc2)C2OC(C)(C)OC12 , P212121 ,0,0,1.2833137164200001,0.668759618344
680, KUPCIJ , O=C(NN(=O)=O)OCCC(N(=O)=O)(N(=O)=O)N(=O)=O , Pccn ,1,0,1.69913766299,0.668992125152
681, EWIHAV , O=N(=O)N(C1CCCCC1)C1CCCCC1 , P21/n ,0,0,1.21802981173,0.686060606061
682, KUDXAK01 , COc1cc(COC(C)=O)c(cc1OC)N(=O)=O , P21/c ,1,1,1.52368186553,0.752607106381
683, KENCEM , CC(=O)NCCC1=CNc2cccc(c12)N(=O)=O , P21/n ,0,1,1.3851213096000001,0.6915922264759999
684, MNPHOL19 , Oc1cccc(c1)N(=O)=O , P212121 ,0,1,1.4819667505899998,0.701477510131
687, CACXUA , CCN(CC)C(=O)C1CC(O)(OCC1N(=O)=O)C(=O)OC , P21/c ,1,0,1.4143661879299998,0.696542920966
688, OGUZOH , CCOC(=O)C1(CC2CCOC2N(O1)c1ccc(cc1)C#N)C(=O)OCC , P212121 ,0,0,1.37168345401,0.7054938062109999
689, ADEWOW , Oc1ccc(cc1C=NNC(=O)c1ccccc1O)N(=O)=O , P21/c ,1,0,1.55261876891,0.734214177979
690, HNIABZ11 , O=N(=O)c1cc(c(N=Nc2c(cc(cc2N(=O)=O)N(=O)=O)N(=O)=O)c(c1)N(=O)=O)N(=O)=O , P21/a ,0,0,1.7448808976099999,0.7031986531990001
692, DEMRES , CC(=O)C1=C(O)CCCCC(C1)N(=O)=O , P21/c ,1,0,1.40728289196,0.7437754640109999
694, XEGDOD , O=N(=O)c1ccc(cc1)C=C1COC(C1)OC1CCCCO1 , C2/c ,1,1,1.32598469022,0.684274111503
696, AHIBUO , Oc1ccccc1C=NC(N=Cc1ccccc1O)c1ccc(cc1)N(=O)=O , Pna21 ,0,0,1.33484986767,0.673060391145
698, LOWMUH , CCOC(=O)C1C(C(C(C(C2=C(C(=NO2)C)N(=O)=O)C1(C)O)c1ccccc1)N(=O)=O)c1ccccc1 , P212121 ,0,0,1.31259348354,0.655029461279
699, NOXBZA , OOC(=O)c1ccccc1N(=O)=O , P21/c ,1,0,1.61424885231,0.743211289092
700, XINNAJ , CC1C2CCC(C)(N(=O)=O)C3(C(C2OC1=O)C(=CC3=O)C)N(=O)=O , P212121 ,0,0,1.42094127157,0.692051282051