ID,name,smiles,space_group,inversion_symmetry,beta_packing,density,packing_coefficient
5124, MNPHOL20 , Oc1cccc(c1)N(=O)=O , P212121 ,0,0,1.5519611353799998,0.7397391883580001
5125, DOYGAB , COc1ccc2cc(ccc2c1)C(ON1C(C)(C)CCCC1(C)C)=CN(=O)=O , P21/n ,0,0,1.2191779331100001,0.661607781539
5126, ZIFCEW , COc1ccc(cc1)C(C)=NN=C(C)c1ccc(cc1)N(=O)=O , P212121 ,0,1,1.2987896060200002,0.699434944969
5127, WUXHUS , OC(=O)c1cccc(c1C(O)=O)N(=O)=O , P21/n ,0,0,1.73950745121,0.7596006144390001
5128, COWTAJ , CCOC(=O)C1=CC2=C(N1)c1c(cc(nc1C(=NNc1ccc(cc1N(=O)=O)N(=O)=O)C2=O)C(=O)OC)C(=O)OC , P-1 ,1,1,1.5249285859700001,0.681909099672
5129, JIMCEQ , CC(C)(C)C1=CC(C=C(C1=O)C(C)(C)C)=C1N=C(c2ccc(cc2)c2ccccc2)C(C)(C)N1[O] , P21/c ,1,0,1.17238304955,0.656259860266
5130, YOHDUW , Cc1cccc(c1C)N(=O)=O , P212121 ,0,0,1.2885781497700002,0.689942471732
5132, IZUFUE , CCc1nc2ccccc2cc1N(=O)=O , P-1 ,1,1,1.3540890221700002,0.7027505446619999
5133, HOVBEB , Cc1ccc(cc1)C1=NOC2C3N(C(Cc4ccccc34)c3ccccc3)C(=O)C12 , C2/c ,1,0,1.3448185584799999,0.72112142139
5134, HEXTIN02 , Cc1c(c(C)c(c(C)c1N(=O)=O)N(=O)=O)N(=O)=O , P-1 ,1,0,1.5967488294299998,0.7632996633
5135, REMTOU , COc1ccc(cc1)C1=C2C(N(OC(OC2=C(C)O1)c1ccccc1)c1ccccc1)c1ccccc1 , P-1 ,1,1,1.29809066651,0.678076581803
5136, AKUPIG , CC(C)(C1OC(=N)c2ccccc12)N(=O)=O , P21/c ,1,0,1.40375511275,0.7014740566040001
5137, LIVWET01 , O=C(CN1C=CN=C1N(=O)=O)NCc1ccccc1 , P21 ,0,0,1.41083836039,0.7064646464650001
5138, NUWVIL , CC(=O)Oc1ccc(cc1C(O)=O)N(=O)=O , P21/n ,0,0,1.62352067005,0.744402618658
5139, NISGEB , O=N(=O)C(CCC1=NN=NN1)(CCC1=NN=NN1)CCC1=NN=NN1 , P212121 ,0,0,1.4997288564200002,0.692980115433
5140, WEXDIM , CC1(C)C2CC(ON2C(C)(C)N1N(=O)=O)C#N , P21/c ,1,1,1.34097527167,0.6159014557670001
5142, BAKMIL , C1C2CN(Cc3ccccc3)C1C1C2ON=C1c1ccccc1 , P21 ,0,1,0.62067082771,0.336200785516
5143, YOTSUV , O=C1CCC(=O)N1N(=O)=O , Pbca ,1,0,1.6477318678100001,0.722900480947
5145, NUBTOU , COC(=O)C1ON2OC(C)(C3CCC41CC1CCC4(C23)C(=O)O1)C(=O)OC , Pccn ,1,0,1.48792336898,0.722525291685
5146, TEVHIN , COC(=O)C12CC34CCCC3CCC1(C4)C(COC(=O)c1ccc(cc1)N(=O)=O)OC2=O , P-1 ,1,1,1.39150852488,0.6897032036859999
5147, YELRUD , [O]n1cccc(O)c1 , P-1 ,1,0,1.5670299920200002,0.7707792207790001
5148, NOHGAU , CCOC(=O)C1(C#N)C(CCC1C(CC)C(=O)c1ccccc1)CON1C(C)(C)CCCC1(C)C , P21/c ,1,1,1.1620395608299998,0.661849101246
5150, UFEDUE , O=N(=O)C1=CC=C(N2CCCCC2)C2=NON=C12 , P21/c ,1,1,1.4749924824399998,0.709490985467
5151, BAVLES , O=N(=O)C1=CN(N=C1)c1cccc(n1)N1C=CC=N1 , P-1 ,1,1,1.5736795232299998,0.7470999523280001
5153, KEVYUF , CC(N1OC21CC1CCCCC1C2)c1ccccc1 , P212121 ,0,0,1.14997776542,0.667624371506
5154, CYNONA , ON=C1CCCCCCCC1 , P-1 ,1,1,1.1180257114299998,0.667654652957
5155, GELRAS , CN1N=NC=C1C1=[N+]([O-])C(C)(C)C(C)(C)N1[O] , P-1 ,1,1,1.32677025232,0.6776888888889999
5156, SAQVIS01 , CN(C)c1ccc(cc1)C1=Nc2cc(ccc2O1)N(=O)=O , P-1 ,1,1,1.4749450584900001,0.7444578986589999
5158, XOPCIP , COc1cccc2C(=O)C3(CC(C)CC4=C3C(=NO4)c12)OCc1ccccc1 , P21/c ,1,0,1.34624264996,0.697791317593
5159, SEKHAR01 , OCC1OC(CN(=O)=O)C(O)C(O)C1O , P43 ,0,0,1.55522828243,0.716090780969
5160, PESHOK , CCC1(OC(OCc2ccccc2)C2OC(C)(C)OC12)C1OC(COC(=O)c2cc(cc(c2)N(=O)=O)N(=O)=O)CC1C , P212121 ,0,0,1.30491237025,0.587970169366
5161, YORKOH , CC1CCC2CC(OC(=O)c3cc(cc(c3)N(=O)=O)N(=O)=O)C(=CC2(C)C1)C , P212121 ,0,0,1.27824160698,0.653891625616
5162, JOWSIZ , NC(=O)NN=CC1=CC=C(O1)c1ccccc1N(=O)=O , P-1 ,1,1,1.4896122778,0.7092493563079999
5163, XACCUC , O=C(OCC(N(=O)=O)(N(=O)=O)N(=O)=O)c1c(cc(cc1N(=O)=O)N(=O)=O)N(=O)=O , P21/c ,1,0,1.85009138357,0.733272058824
5164, WEGVIP , COc1cc(OC)c(C#[N+][O-])c(c1)C1OCCCO1 , P-1 ,1,1,1.45188566179,0.73487912492
5165, CUGDAJ , COC(=O)N1CC2ON=C(OC2C=C1)c1ccccc1 , P21/c ,1,0,1.3912431893700001,0.686536138982
5166, SEKHAR , OCC1OC(CN(=O)=O)C(O)C(O)C1O , P41 ,0,0,1.5552931464200002,0.721355558795
5167, NAGGOU , O=N(=O)c1ccc(cc1)N1C=NN=N1 , P21/c ,1,1,1.56167097814,0.708812821489
5169, JEYGOK , COC(=O)CC1C2OC(C)(C)OC2C2CC(ON12)C(=O)N1CCOC1=O , P212121 ,0,0,1.40017171172,0.688481790645
5172, HIZHOP , O=C(OCc1ccc(cc1)N(=O)=O)c1ccccc1N(=O)=O , P21/c ,1,0,1.5350718527200002,0.7314
5173, JESVAF , OC(=O)Cc1cccc(c1)N(=O)=O , C2/c ,1,0,1.54178625645,0.737872340426
5174, KIYSIW , COC(=O)c1ccc(cc1)C(=O)c1ccccc1C1=NOC(=C1)c1ccccc1 , P-1 ,1,1,1.32228084244,0.677326259328
5175, GAKVOF , OC(NN1C=NN=C1)c1cccc(c1)N(=O)=O , P21/c ,1,0,1.52091077351,0.712410394265
5176, ZONJUH , CCN(CC)c1cccc(OCCOc2ccc(cc2)N(=O)=O)c1 , P-1 ,1,1,1.26299631197,0.6735223249410001
5177, JUTDEJ , COC(=O)C=C1N(CCCN(C)C)c2nc3cc(ccc3nc2N(Cc2ccccc2)C1=O)N(=O)=O , P-1 ,1,1,1.3552364812399997,0.680903289151
5178, SODMEE , O=N(=O)c1cccc2nc3C4CC(Cc3cc12)c1nc2cccc(c2cc1C4)N(=O)=O , Pbcn ,1,0,1.47489141928,0.713880046909
5181, PUWGIX , COC(=O)C(=C(N1CCCCC1)c1ccccc1)N(=O)=O , P21/c ,1,0,1.28883952989,0.66423838334
5182, UZISAY , CCOC(=O)C1C(N2CCC(=O)N2C(=C1C(=O)OCC)C)c1ccc(cc1)N(=O)=O , P-1 ,1,0,1.1349700030399998,0.575381765609
5183, RIHCIV , COC(=O)c1c(O)ccc(c1O)N(=O)=O , P21/c ,1,1,1.65941299313,0.742284390592
5185, UKIMIM , CC1CC(COC(=O)c2cc(cc(c2)N(=O)=O)N(=O)=O)C(O1)c1ccccc1 , P-1 ,1,1,1.41665338378,0.6989516673880001
5186, LIVNUZ , O=C1OC(=O)c2c3CCc4cccc(c4c3c3c(CCc4ccccc34)c12)N(=O)=O , P-1 ,1,1,1.4556216887399998,0.704566293783
5187, ODEJEN , OC(=O)CCCC(=O)OCC(CON(=O)=O)(CON(=O)=O)CON(=O)=O , P21/n ,0,0,1.53825326628,0.706146304676
5189, UZEPEW , CN1C(=O)C2ON3CCc4ccccc4C3C2C1=O , P21/c ,1,0,1.45886313847,0.732989812841
5190, VUPPED , C=CCC12C(COC1c1ccccc1)CON2C(=O)CN(=O)=O , P212121 ,0,0,1.38175469032,0.7073352834090001
5191, GAVCEN , COc1ccc(cc1)C(CC1(C(=O)N(C)c2ccccc12)C1=CN(C)c2ccccc12)=NO , P212121 ,0,0,1.2627742275700002,0.658203304698
5192, HIXDOI , COC(=O)C1(CC2C(=Cc3ccc(cc3C2(C)C)N(=O)=O)C1)C(=O)OC , P-1 ,1,1,1.3871409880899999,0.707561017238
5195, ZOSTEG , [O]N(=CC=Cc1ccccc1O)c1ccccc1 , Pbna ,0,0,1.28414040002,0.6764141414139999
5196, EVAZIK , N#CCC1CCCC23CCCC(ON12)C3C#N , Cc ,0,0,1.26058157,0.690596153846
5197, VAXPIV , O=CC(=Cc1ccc(cc1)N(=O)=O)C1=CNc2ccccc12 , P21/c ,1,0,1.3590275649799999,0.682913421896
5198, OFOLIE , O=N(=O)c1ccc2N(Cc3ccc(CN4C=Cc5cc(ccc45)N(=O)=O)cc3)C=Cc2c1 , P21/a ,0,0,1.4062145430500002,0.7041888827600001
5199, COJJAN , CCOC(=O)CC(C(CC(C)C)NC(=O)OC(C)(C)C)N(=O)=O , P212121 ,0,0,1.1666429673999998,0.638090083885
5200, GAKXUM , O=N(=O)c1ccc(NN=Cc2ccc(cc2)N(=O)=O)cc1 , P21/n ,0,0,1.5157923041499999,0.7289598997490001
5201, DEBAOX , CCN(CC)C(=NO)c1ccccc1 , P-1 ,1,1,1.13648076239,0.641658465188
5202, LUDCIW , C[NH+]([O-])C(CC(=O)[NH2+][O-])c1ccccc1 , Pbca ,1,0,1.28048710835,0.660506822612
5203, YITJES , CN(CN(C(=O)OCC(N(=O)=O)(N(=O)=O)N(=O)=O)N(=O)=O)N(=O)=O , P21/c ,1,0,1.83787833463,0.7417843733239999
5204, PIKRAC , O=N(=O)C1C=C2c3ccccc3c3cccc(C1C(N(=O)=O)(N(=O)=O)N(=O)=O)c23 , P21 ,0,0,1.6432075305,0.700167410714
5205, MNIAAN11 , CC(=O)Nc1ccc(C)cc1N(=O)=O , P21/c ,1,0,1.31084769819,0.659575471698
5206, CYPYRO , [O]n1ccc(cc1)C#N , P21/c ,1,0,1.42996198738,0.729989065063
5207, RAZFIH , CON(C)C(=O)c1cccc2CCCCc12 , P21/a ,0,0,1.42537638001,0.748327931265
5210, NIVCEA , O=N(=O)C(c1cccc2OC=Cc12)(N(=O)=O)N(=O)=O , P-1 ,1,1,1.66911429757,0.72006940428
5211, ZOFYAW , CC(=O)NC1C=C(C)CC(C1N(=O)=O)c1ccccc1 , C2/c ,1,1,1.3272206968200002,0.707161845544
5212, PADBIF , O=N(=O)c1ccccc1OCCOCCOc1ccccc1N(=O)=O , P1121/b ,0,0,1.4364748981600002,0.701121876594
5213, YISCOS , COc1ccccc1C1=N([O])C(C)(C)C(C)(C)N1[O] , Pbca ,1,0,1.24637617545,0.6967101850730001
5214, GEXQIM , O=C1CCCC(=C1)c1ccccc1N(=O)=O , P21/c ,1,0,1.38429302616,0.740324899367
5215, VIRVAV , O=C(Nc1ccccc1N(=O)=O)Nc1ccccc1N(=O)=O , Pca21 ,0,0,1.5866479632799997,0.74212962963
5216, CEVXEH , O=C1OCC([N+](=C1)[O-])c1ccccc1 , P21 ,0,0,1.4199394250100001,0.718256864367
5217, PIGSIJ , O=N(=O)c1cc(c(N2C=NC(=C2N(=O)=O)N(=O)=O)c(c1)N(=O)=O)N(=O)=O , P212121 ,0,0,1.80186850534,0.719064789377
5218, LIJKEV , CC1=NC(=CN1c1cccnc1)N(=O)=O , P21/n ,0,0,1.5242758625100001,0.730770565174
5220, ETAHIR , Cc1ccc(cc1)C1N(C(=O)C2=C(OCC2)C1=Cc1ccccc1N(=O)=O)c1ccccc1 , P-1 ,1,1,1.3263416319499999,0.677645305514
5221, CUPTAK , CN1C(=O)C2=C(OC(=CC2c2cccc(c2)N(=O)=O)c2ccccc2)c2ccccc12 , P-1 ,1,1,1.3981327507499999,0.695868644068
5222, ZULYEK , CC1=C(c2ccc(cc2)N(=O)=O)c2ccccc2N1 , Pcab ,0,0,1.3526860624300001,0.6992016530480001
5223, KEWYAP , CN1OC(C(=O)N(OCc2ccccc2)C1c1ccc(C)cc1)c1ccccc1 , P21/c ,1,0,1.22656976791,0.656032382383
5224, YEMKIK , CC(=O)OCC1OC(N=[N+]=[N-])C(=NO)C(OC(C)=O)C1OC(C)=O , P21 ,0,0,1.39042533938,0.6614763552480001
5225, PUBMUU23 , O=N(=O)N1C2C3N(C1C1N(C(C(N3N(=O)=O)N1N(=O)=O)N2N(=O)=O)N(=O)=O)N(=O)=O , P21/n ,0,0,2.2754274328,0.8357323427750001
5228, QQQFGG01 , O=N(=O)c1ccc(Nc2ccccc2)c(c1)N(=O)=O , P21/n ,0,0,1.4879131299200001,0.701812169312
5229, QAYJEG , CCOC(=O)C1(CC2C=CCCC2C2CCC(=NNc3ccc(cc3N(=O)=O)N(=O)=O)C2C1)C(=O)OCC , C2/c ,1,0,1.30839784775,0.646198159394
5230, DAVCOV , CCN1c2ccccc2c2cc(ccc12)C1=NC2=NON=C2N=C1c1ccccc1 , P21/n ,0,0,1.30177516648,0.656574223606
5231, MAYDUN , CC1(CCC2(CCC3(CCC(C)(N3[O])c3ccc(O)cc3)CC2)N1[O])c1ccc(O)cc1 , Pna21 ,0,0,1.24536463895,0.6689087656530001
5233, DEDWEO , [O-][N+](c1ccccc1)=C1c2ccccc2c2ccccc12 , P21/c ,1,1,1.33397171909,0.712712415062
5234, CEKDAZ , COC(=O)C(Cc1ccc(O)cc1)NC(=O)Cc1ccc(cc1)N(=O)=O , P212121 ,0,0,1.3723888877500001,0.6857881828319999
5235, QIBNEV , CC(C)(C)c1ccc(cc1)C1=NOC2C1C=CC2=C1C2CC3CC(C2)CC1C3 , P21/c ,1,0,1.18959792037,0.693907706297
5237, YANSIR , CN1N=NN([N-]N(=O)=O)C1=[NH2+] , P21/n ,0,0,1.64312378504,0.7017663817659999
5238, COGDUZ , O=N(=O)C1=NN(N=NN2N=C(C=C2N(=O)=O)N(=O)=O)C(=C1)N(=O)=O , C2/c ,1,0,1.8489132771099999,0.732798382511
5239, LENMIB , CC(C)=NOC(=O)C1Oc2ccccc2Cc2ccccc2O1 , Fdd2 ,0,0,1.2926067698700001,0.660672723592
5240, YIPQUL , CC1(O)CCC(C(c2ccccc2)C21C(=O)c1ccccc1C2=O)N(=O)=O , P21/n ,0,0,1.30932213978,0.658366402116
5241, EBOWIC , CC12CC3CCC4OC(=O)C(=C1)C34N(O2)c1ccccc1 , P212121 ,0,0,1.3542314246,0.6986799236040001
5242, YEFGOG01 , None , P21/n ,0,0,1.1071365498999999,0.818560354374
5243, LUHJUU , CCOC(=O)C1C(=O)N(Cc2cccc(c2)N(=O)=O)C21C=CC(=O)C=C2 , P-1 ,1,1,1.3420615594499998,0.665930372149
5244, ZAKMUW , O=N(=O)c1ccc(cc1)C=C=C(c1ccccc1)C1=C2C=CC=CC2=NN1c1ccccc1 , P21/c ,1,0,1.30868304307,0.6830336968269999
5246, PITPUE , Cc1ccc(cc1)C=C1CCCC2C(N(N=C12)c1ccc(cc1)N(=O)=O)c1ccc(C)cc1 , P-1 ,1,0,1.2776753347299998,0.6870732668070001
5247, PAFHEL , CON(C)C(=O)C1C(COCc2ccccc2)N(C1=O)C(c1ccccc1)(c1ccccc1)c1ccccc1 , P21 ,0,0,1.32602601323,0.71394765572
5248, GUZSAW , CC1(C(OC1=O)c1ccc(cc1)N(=O)=O)c1ccccc1 , Pccn ,1,0,1.40288615491,0.709338525871
5249, WULYUZ , COc1cc2CC(C(=O)NC(c3ccccc3)c3ccccc3)[N+]([O-])(Cc3ccccc3)C(c3ccccc3)c2cc1OC , P21/c ,1,0,1.27372838187,0.683137781106
5251, YEBQON , CC12CCCC(=C1C(=O)OC2C1=COC=C1)C=NNc1ccccc1N(=O)=O , P21 ,0,0,1.40455422731,0.691972462062
5252, LIRLOO , CC12CCC(Cc3cc(COC(=O)c4ccc(cc4)N(=O)=O)c(COC(=O)c4ccc(cc4)N(=O)=O)cc13)O2 , P212121 ,0,0,1.4074482649200002,0.684975096846
5253, TOTWOQ , O=C1N(Cc2ccccn2)C(=O)c2cc(cc3cccc1c23)N(=O)=O , P21/c ,1,0,1.46979662621,0.6986708603899999
5254, BCONBZ10 , O=C(OC12CCCCC1CC2)c1cc(cc(c1)N(=O)=O)N(=O)=O , P21/c ,1,0,1.39700371574,0.680660453158
5255, LIHDIP , O=C(NC1=NON=C1c1ccccc1)c1ccccc1 , Pc ,0,0,1.3715964117700001,0.694180130953
5257, EGEHAA , O=N(=O)OCC(CON(=O)=O)(N(=O)=O)C(CON(=O)=O)(CON(=O)=O)N(=O)=O , P21/n ,0,0,1.9167111450299998,0.762473839654
5258, NIHKUL , O=N(=O)c1ccccc1C1OC2CC32C1Cc1ccccc31 , P21/n ,0,1,1.39662034772,0.710351397937
5259, DODKIQ , O=C(OCCCCOC(=O)c1ccc(cc1)N(=O)=O)c1ccc(cc1)N(=O)=O , P21/c ,1,0,1.43401567315,0.693025921057
5260, XESMOZ , COC(=O)C1(CCN(C)C1=O)C(CN(=O)=O)C1=COC=C1 , P21/n ,0,0,1.43861500161,0.7167075163400001
5261, TELYOY , CC(=O)OC1CCC2C3CCC4=CC(CCC4(C)C3CCC12C)=NOCc1ccccc1 , P21 ,0,0,1.1493110771500001,0.641526405284
5262, CUNCOE , O=N(=O)c1ccc(cc1)C1C(c2ccccc2)C1(C#N)C#N , P21/n ,0,0,1.33251007712,0.679972257789
5263, QUGLEJ , CC1(N(N=O)c2ccccc2C1=O)c1ccccc1 , P21/n ,0,0,1.31173434201,0.6873150586929999
5264, FIGDOR , CC1(C)N([O])C(C)(C)c2cc3OC4=CNC(=O)N=C4Nc3cc12 , P21/n ,0,1,1.24910175129,0.614607790444
5265, VUXVUG , CC(Cc1ccccc1)C(=O)N(OC(C)(C)C)C(C)c1cccc2ccccc12 , C2/c ,1,0,1.1338885131,0.659053045448
5266, XEGDUJ , COCCCC12CC3CCC1(C=N(=O)OC2C=C(C)C)C(=O)O3 , C2/c ,1,0,1.2954970098,0.690343012623
5267, BOWCUM , O=C1c2ccccc2C(=O)C21C(c1cccc(c1)N(=O)=O)C12C(=O)c2ccccc2C1=O , P21/c ,1,0,1.4610175866400001,0.6975072341449999
5268, SEFVIL , NN1N=C(C(=C1C1=C(C(=NN1N)N(=O)=O)N(=O)=O)N(=O)=O)N(=O)=O , P21/c ,1,0,1.8108167176599996,0.712527233115
5269, SAFJIT01 , CC1(C)N([O])C(=[N+]([O-])C1(C)C)c1cccc(c1)N=[N+]=[N-] , P21/c ,1,1,1.2947385123200001,0.6708422282190001
5271, PEMKEA , O=N(=O)C(c1cccc(n1)C#N)(N(=O)=O)N(=O)=O , P21/c ,1,0,1.7064845767399999,0.728565240261
5272, PEZFUW , CC1(C)CC(CC(C)(C)N1[O])C(=O)OCCCCCCCCCCCOc1ccc(cc1)N=Nc1ccc(cc1)N(=O)=O , P21/c ,1,0,1.18659562383,0.6536746490500001
5273, DORJIE , CC(CC(C)(COC(=O)c1ccc(cc1)N(=O)=O)C#N)c1ccccc1 , Cc ,0,0,1.28037358299,0.672796993634
5274, TEZXOM , O=N(=O)c1ccc(Oc2ccc(cc2)c2ccc(Oc3ccc(cc3)N(=O)=O)cc2)cc1 , P21/c ,1,0,1.4283732296,0.705450733753
5275, PECZED , O=C(Nc1ccc(cc1)N(=O)=O)C(Nc1ccc(cc1)N(=O)=O)c1ccccc1 , P21/c ,1,0,1.38165772677,0.6720760593389999
5276, FENQEV , C=CCOC(=O)C=Cc1cc(cc(c1)N(=O)=O)N(=O)=O , P21/n ,0,0,1.43663760704,0.683416612226
5278, TIHMII , CC(C)(C)NC(=O)C1N(O)CCc2ccccc12 , Pbca ,1,0,1.2041129748200001,0.676892516302
5279, ADOKUZ , OC(c1ccccc1)C(=NNc1ccc(cc1N(=O)=O)N(=O)=O)c1ccccc1 , P21/c ,1,0,1.4287290987,0.6899637903939999
5280, SONBUS , COc1nccnc1C=NNc1ccc(cc1N(=O)=O)N(=O)=O , P21/c ,1,0,1.5591893679,0.7118920906890001
5281, CEHGED , COc1ccc(cc1)C=NNC(=O)CN1C=C(N=C1C)N(=O)=O , P-1 ,1,1,1.4300044535299998,0.708610792193
5283, ATOJEY , CC(=NO)C(C)=NNC(=O)c1ccccn1 , P21/c ,1,0,1.3763641485,0.701922451722
5284, JADKOP , CC(C)C(C1CC(CO)ON1Cc1ccccc1)N(Cc1ccccc1)Cc1ccccc1 , C2 ,0,0,1.1439511371200002,0.644024172862
5285, MICXAY , O=C(OCC1(OC1c1ccccc1)C1(COC(=O)c2ccc(cc2)N(=O)=O)OC1c1ccccc1)c1ccc(cc1)N(=O)=O , P212121 ,0,0,1.44997622338,0.710207143269
5286, HECBAU , O=C(CC(C1CCc2ccccc2C1=O)c1ccccc1)c1cccc[n+]1[O-] , P212121 ,0,0,1.33021178182,0.7035999334890001
5287, WECZIN , CC(C)(C)NC=C(C=O)N(=O)=O , P21/n ,0,1,1.28499437314,0.609117445055
5288, TUQCOX01 , O=N(=O)C(=CC1=CN=CN1Cc1ccccc1)c1ccccc1 , P21/c ,1,0,1.3056440499200002,0.688
5289, UYADAA , O=C(c1ccccc1)C1=C(OC2(CCC12)Cc1ccc(cc1)N(=O)=O)c1ccccc1 , P21/c ,1,0,1.3259301347,0.691012143371
5290, KERTAD , CC(C)N1C(=NC2=C(N=NN2c2ccccc2)C1=O)Oc1cccc(c1)N(=O)=O , C2/c ,1,1,1.3546096141100001,0.653133528226
5291, EVOWET , CCOC(=O)C=COC1CC(C)(C)N([O])C(C)(C)C1 , P21/c ,1,0,1.1932293693,0.675734583513
5292, PEMCAM06 , CN(C)c1ccc(cc1)C=CN(=O)=O , Pbca ,1,0,1.3118475256,0.703497083108
5294, ZIPSUO , OC(=O)C1=NON=C1NCNC1=NON=C1C(O)=O , C2/c ,1,0,1.80622958474,0.7576164680390001
5295, FEVBUD10 , CC1(C)CC(O)(CC(C)(C)N1[O])C#CC#CC1(O)CC(C)(C)N([O])C(C)(C)C1 , Pccn ,1,0,1.17311003271,0.661571642579
5296, KEBTAO , COc1ccc(cc1)N1CCC(CO)C1c1cccc(c1)N(=O)=O , P21 ,0,0,1.3451542706900002,0.696671723699
5297, KUQKEN , OC1(CC(=O)c2ccc(cc2)N(=O)=O)C(=O)Nc2ccccc12 , P-1 ,1,1,1.51915930991,0.7258444619009999
5298, LEBSAN , [O]N1c2ccccc2C(=CC1(c1ccccc1)c1ccccc1)c1ccccc1 , P-1 ,1,1,1.2484503752200002,0.665886192706
5299, AWOJOL , O=C1C2=C(C(=O)c3ccccc13)C(=NO2)C1=C([O-])ON=[N+]1c1ccccc1 , P21/n ,0,0,1.51629364321,0.6723160242120001
5300, LUQLEO , COc1ccc(cc1)C(=O)C=C(O)c1ccc(cc1)N(=O)=O , P21 ,0,1,1.4134764165399998,0.700749143836
5301, SABPUH , ON=C(C#N)C(=O)N1CCCCC1 , P212121 ,0,0,1.31698799105,0.686736003242
5302, BAPWOG , CC1(CCc2ccccc2C1OC(=O)c1ccc(cc1)N(=O)=O)COC(=O)c1ccc(cc1)N(=O)=O , P21 ,0,0,1.3674516458000001,0.665851795264
5304, SETHEF , COc1cccc(c1)C1=NOC(=N1)c1ccccc1OCC(=O)Nc1c(C)cccc1C , P-1 ,1,1,1.3067536985700001,0.676648408433
5305, VUNKAS , CCC(=O)Oc1cc(C)ccc1N([O])=Nc1ccc(C)cc1 , P-1 ,1,1,1.25124026648,0.661820892741
5306, XERGUW , O=C1C2C(C2N(=O)=O)C(=O)N1Cc1ccccc1 , P21/n ,0,0,1.43190319474,0.6925110479800001
5307, DODNUH , CC1ON(c2ccccc2)C2(OCCC12)c1ccccc1 , P21 ,0,1,1.2876047222799998,0.693616975695
5309, MAZYIW , O=C(OCc1ccccc1)c1cc(cc(c1)N(=O)=O)N(=O)=O , P42/n ,1,0,1.52924173594,0.727976007607
5310, SEMXAJ , COc1c(cc(c(C)c1N(=O)=O)N(=O)=O)C(C)(C)C , P21/n ,0,0,1.3048163185500001,0.670044444444
5311, PUSGAL , CC(C)(C)N([O])=Cc1ccccn1 , Pca21 ,0,0,1.17152557954,0.667733457019
5312, GAKVIZ , OC(NN1C=NN=C1)c1ccccc1N(=O)=O , P21/c ,1,0,1.50542242705,0.7004554326610001
5314, LESYEN , O=N(=O)c1ccccc1c1ccccc1 , P21/n ,0,1,1.28607289292,0.674297248804
5315, UPOCEJ , OCC1OC(C(O)C1O)N1C(=O)NC(=O)C(=NNc2ccc(cc2)N(=O)=O)C1=O , P212121 ,0,0,1.66876386789,0.747063649086
5316, IPUPOZ , O=N(=O)C1=CC(=CC2=[N+]([O-])ON=C12)C#N , P21/c ,1,1,1.68593338153,0.7145438121050001
5317, CINJAM , CC(=NO)c1ccccc1N , P212121 ,0,0,1.3356689236900001,0.7229126295389999
5318, DONTAB , None , P21/n ,0,0,1.39717877292,0.6991107906749999
5319, AGAFUL , O=N(=O)C1=C(N(Cc2ccccc2)Cc2ccccc2)C2=NO[N+](=C2C(=C1N(Cc1ccccc1)Cc1ccccc1)N(=O)=O)[O-] , P-1 ,1,1,1.36745328102,0.677919638065
5320, TAXHAD , CC1(C)CC(CC(C)(C)N1[O])C(=O)OCCOC1=CC(C(=CC1=C(C#N)C#N)OCCOC(=O)C1CC(C)(C)N([O])C(C)(C)C1)=C(C#N)C#N , P21/n ,0,0,1.23633449998,0.6478709099059999
5321, BELBUP01 , ON1N=Nc2cccnc12 , C2/c ,1,0,1.61601807342,0.7292042042039999
5322, IQEPIE , CCOC(=O)C(C)=C1CC(c2cccc(c2)N(=O)=O)C(C#N)(C#N)C1=Nc1c(C)cccc1C , P-1 ,1,0,1.2324298085299998,0.655624659029
5323, WILRUF , CC1C(CC2C1C=C(C)C2(C)C)OC(=O)c1cc(cc(c1)N(=O)=O)N(=O)=O , P-1 ,1,1,1.31539915991,0.66645021645
5324, VUHHOX , COc1ccc(cc1)C1N2CCC(=O)N2C(c2ccc(cc2)N(=O)=O)C1(C#N)C#N , P-1 ,1,1,1.3611902971,0.674902874903
5325, KIKQUR , CC1CCC(=O)C(C1)C(O)c1ccc(cc1)N(=O)=O , P21 ,0,0,1.28263934635,0.659795148248
5327, POSGOU , CN1OCC2CC(O)C3OC(C)(C)OC3C12 , P21 ,0,0,1.2602129526999999,0.658073235414
5328, WOBJIG , CN(C)c1ccc(C=CC=Nc2ccc(cc2C)N(=O)=O)cc1 , P-1 ,1,1,1.25984136905,0.6746603863130001
5329, FIPZIN01 , O=N(=O)N(CN=[N+]=[N-])CN(CN(CN=[N+]=[N-])N(=O)=O)N(=O)=O , P-1 ,1,1,1.7632727123299998,0.748559145881
5330, FASTUQ , CCN(CC)c1nc(NN=Cc2ccc(cc2)N(=O)=O)nc(n1)N(CC)CC , P21/c ,1,0,1.21464853948,0.6359715217399999
5331, NTRGUA , NC(N)=NN(=O)=O , Fdd2 ,0,0,1.7700360321400002,0.7195454545450001
5332, URICOP , O=N(=O)c1ccc(cc1)c1nccc(n1)c1ccccc1 , P21/n ,0,0,1.4187318710799999,0.7134971509970001
5333, DAMTOB , CCOC(=O)C1=NOC2C1CC1C2ON=C1C(=O)OCC , P-1 ,1,1,1.36651115417,0.662650824353
5334, ZETXOO , O=C(OCC1CO1)c1cc(cc(c1)N(=O)=O)N(=O)=O , P212121 ,0,0,1.6606962563,0.7539599347779999
5335, TUXKEC , CCCCCCCc1ccc(cc1)C(=O)Oc1ccc(cc1)C1=[N+]([O-])C(C)(C)C(C)(C)N1[O] , P21/n ,0,0,1.18245005171,0.644570439557
5336, QAHVUQ , ON=C(N1CCCC1)C(=NN=CN1CCCC1)c1ccccc1 , P1 ,0,1,0.615207291365,0.331700937951
5337, IVUHUE , CC(Cc1ccccc1)(Cc1ccccc1)c1ccc(cc1N)N(=O)=O , R-3 ,1,0,1.25464944961,0.6823439538789999
5338, MUDZIV , CC1(O)C[N+](=C(N)C2(CCCCC2)C1)[O-] , Pccn ,1,0,1.1413864174700001,0.634411660599
5339, USORUQ , CCN1C(=O)c2cc(ccc2c2cc3N(CC)c4ccccc4c3cc12)N(=O)=O , C2/c ,1,0,1.43810370159,0.7284037995899999
5342, AHIHIK , CC1(C)OC2OC(CCN(=O)=O)C(CNC(=O)OCc3ccccc3)C2O1 , P212121 ,0,0,1.3610757301499998,0.6890016920469999
5343, UFEWIN , Cc1ccc(N(O)C(C)(C)C)[n+]([O-])c1 , P43212 ,0,0,1.1753613654700001,0.649248026243
5344, WUKVUU , CCOC(=O)CC(C=CC(=O)OC)=Cc1cccc(c1)N(=O)=O , P-1 ,1,1,1.3887214293599999,0.707650436061
5345, QOVTAX , CCCCCCCCCCCNc1cc(NCCCCCCCCCCC)c(cc1N(=O)=O)N(=O)=O , P-1 ,1,1,1.1530830809100001,0.675201380898
5346, PAHHEN , CNC(=O)CC(C)(C)N1OCCCCO1 , P21/c ,1,1,1.22199834427,0.676113464254
5347, FEPLUH , CCOC(=O)C1(CC2CON=C2C1c1ccccc1)C(=O)OCC , C2/c ,1,0,1.19485759913,0.636581935728
5348, VEJVOW , CC1(C)N(O)C2CC(O)ON2C1(C)C , P21/c ,1,0,1.27966945429,0.68680891036
5350, TORQEY , CON1CCC23CCC(=O)N4c5ccccc5C(=C24)C1C(=O)C3 , P21/n ,0,0,1.4076148098199999,0.716322670491
5351, CAVQUM , CC=CC(=O)NO , P21/c ,1,0,1.2528293890200002,0.660004298302
5352, GUKTOV , COc1nc(N)nc(NC23CC4CC(CC(C4)C2)C3)c1N=O , Pnma ,1,1,1.41470881752,0.719211448535