ID,name,smiles,space_group,inversion_symmetry,beta_packing,density,packing_coefficient
9821, IGAZIB , CC1CC(C)OC(O1)(c1ccccc1)c1ccc(cc1)N(=O)=O , P21/n ,0,0,1.29792545966,0.681430856478
9823, TIFKID , CC(=O)OCC1CC2ON3CC4OC(C)(C)OC4C3C2C(=O)O1 , P21 ,0,0,1.39101546835,0.680085388994
9824, OGEPUM02 , O=C(Nc1cccc2cccnc12)c1ccc(cc1)N(=O)=O , P21/c ,1,0,1.4362168647100002,0.703752870264
9825, DITYAI , CC(C)(C)N1C=CN(C1=NN=O)C(C)(C)C , P21/n ,0,0,1.2369538391500001,0.723669975516
9826, ROQWUP , CC1(C)C=C(C2=[N+]([O-])C(C)(C)C(C)(C)N2[O])C(C)(C)N1[O] , P-1 ,1,1,1.20096493437,0.656415343915
9827, ELAQUF , CC(=O)N(O)CCc1ccccc1 , P21/c ,1,0,1.25642474948,0.6894103371379999
9828, GEZXAK , CN(N=O)N1C(=Nc2ccccc12)C , P21/n ,0,0,1.3060240966299999,0.679421579533
9829, DUXDEH , O=N(=O)c1ccc(OCC#CC#CN2c3ccccc3c3ccccc23)cc1 , P21/c ,1,1,1.3895764797,0.7127690972220001
9830, RAYTAM , CC1(C)N(=C(c2cccc(n2)C#C)N(=O)C1(C)C)[O] , P21/n ,0,0,1.2703943733499998,0.677944833303
9832, IPCDNB , CC(C)C(C)C=CC(C)C1CCC2C3=CC=C4CC(CCC4(C)C3CCC12C)OC(=O)c1cc(cc(c1)N(=O)=O)N(=O)=O , P21 ,0,0,1.23454587201,0.680543974588
9833, IJERAS , CC(=O)NC(Cc1ccccc1O)C(=O)NOCc1ccccc1 , P21/c ,1,0,1.29028465856,0.670062066448
9834, VALTEJ01 , O=N(=O)C(COCOCC(N(=O)=O)(N(=O)=O)N(=O)=O)(N(=O)=O)N(=O)=O , Pbcn ,1,0,1.8440371832599998,0.7322807017540001
9835, WAQHED , CN(CCN(C)N=O)N=O , C2/c ,1,1,1.26700339081,0.655202688384
9836, VIFBAQ , COC(=O)c1nc2ccccc2[n+]([O-])c1C(=O)OC , P21/n ,0,0,1.4898159746700002,0.7102051463600001
9837, VOSQID , CN(C)Cc1cc(ccc1O)C1=[N+]([O-])C(C)(C)C(C)(C)N1[O] , P21/c ,1,0,1.2402935325700002,0.6789434523810001
9838, QABCON , [O]N(CC(=O)OCc1ccccc1)=Cc1ccccc1 , P212121 ,0,0,1.15399770788,0.6416206451609999
9839, ARAGUW , COc1ccc(cc1)C1CC2=C(C)OC(=C2C(N(O1)c1ccccc1)c1ccccc1)c1ccc(OC)cc1 , P21/c ,1,0,1.31134436744,0.7029492537309999
9840, WUHYIH , [NH3+]C(CC1=CON=C1C(=O)[O-])C(O)=O , P212121 ,0,0,1.6830532384999999,0.7711148648649999
9841, MIXXOH , O=N(=O)c1ccc([O-])c(C=[NH+]CCC2=CNc3ccccc23)c1 , C2/c ,1,0,1.3821193267899998,0.6967381193979999
9842, WIXCAI , CC(=O)NC(c1cccc(c1)N(=O)=O)c1c(O)ccc2ccccc12 , P-1 ,1,1,1.36176564588,0.6874050798639999
9843, AXESIH , CC(C)(C)C1=NOC(=N1)c1ccc(CC(O)=O)cc1 , Pbcn ,1,0,1.28279299394,0.67895795087
9844, BEZZOX , O=C(C1C(ON(C1c1ccc(cc1)N(=O)=O)c1ccccc1)c1ccccc1)c1ccccc1 , P-1 ,1,1,1.31267219748,0.667048012236
9845, CUTTUH , CN(C)C(=N[N+]([O-])=NOCc1ccccc1)c1ccccc1 , Pbca ,1,0,1.29530375438,0.694359368988
9846, PEPQOQ , CC(CC1(CCCC1C)c1ccccc1)OC(=O)c1cc(cc(c1)N(=O)=O)N(=O)=O , P21 ,0,0,1.31442707814,0.6725002581239999
9847, IJUSIQ , OC(COc1ccccc1N(=O)=O)COc1ccccc1N(=O)=O , P212121 ,0,1,1.48497943444,0.704319040144
9848, LACGEC , COC(=O)CCC(c1nc(nc(n1)N(C)C)N(C)C)(N(=O)=O)N(=O)=O , P21/n ,0,1,1.3660536571899997,0.659539416338
9849, EHEZIA , OC(=O)C[NH+](CC(=O)[O-])Cc1ccc(cc1)N(=O)=O , P21/c ,1,0,1.54851859146,0.7402483564650001
9850, XAYCEF , CCOC(=O)C1=C(CN2CCCCC2)NC(=C(C1c1cccc(c1)N(=O)=O)C(=O)OC)CN1CCCCC1 , P21/c ,1,0,1.25617370671,0.661348624111
9851, IBIYOK , CCCCOc1c(OC)cc(c2C3ON=C(C(Cc12)O3)N(=O)=O)N(=O)=O , P212121 ,0,0,1.54670510833,0.733414286829
9852, MCRZMA , C[N+]([O-])=NCOC1OC(COC2OCC(O)C(O)C2O)C(O)C(O)C1O , P21 ,0,0,1.4749172644100002,0.695426265914
9853, DUJBUG , Oc1ccc(cc1C=O)N(=O)=O , P21/n ,0,1,1.5627062545700001,0.720197194773
9854, COQPIJ , C1CC23CC(N(O2)c2ccccc2C=C3CO1)c1ccccc1 , P21/c ,1,0,1.26993218736,0.6618357487919999
9855, VIDZUG , COc1cc(OC)c2c3cc(CCON4N=Nc5ncccc45)ccc3c3c4c5ccc(CCON6N=Nc7ncccc67)cc5c5c(OC)cc(OC)c6c7ccccc7c(c7c8ccccc8c1c2c37)c4c56 , P-1 ,1,1,1.4048058468399998,0.687928827445
9856, QIFPON , NC1=C(C2=NN=NN2C2=NO[N+](=C12)[O-])N(=O)=O , P212121 ,0,0,1.92054992713,0.7523213354199999
9857, ROKSUH , OC(=NN(=O)=O)C(N(=O)=O)(N(=O)=O)N(=O)=O , P21/c ,1,0,1.84188468259,0.7510873440289999
9858, WOGPAJ , CC1=CC(=NN1c1ccc(cc1N(=O)=O)N(=O)=O)O , P-1 ,1,1,1.56811391597,0.707244434517
9859, MOKWUF , COc1nc(N)nc2Nc3ccccc3C(=Nc12)c1cccc(c1)N(=O)=O , P21/n ,0,0,1.54100139244,0.7402157650210001
9860, IYIYEU , COc1cc2cccnc2c(c1)N(=O)=O , P21/c ,1,0,1.47523459815,0.7304086617810001
9861, CIWVAH01 , [O]N(=NC1=NON=C1NN(=O)=O)C1=NON=C1NN(=O)=O , Pn ,0,0,2.01931749438,0.7654929679889999
9862, XAVLEL , CN1N=C(c2ccccc2)C2=NN(N=C2C1=Nc1ccccn1)c1ccc(cc1)N(=O)=O , P21/c ,1,0,1.4370376358399999,0.698219048644
9863, VOPYEE , CC1(N([O])c2ccccc2C1=O)c1ccccc1 , P21/c ,1,0,1.31684207435,0.693898472851
9864, HIGDUY , COc1ccc(CON2CCCC34C(CCCC3=O)CC(=O)C34CCC2O3)cc1 , P-1 ,1,1,1.3453228501700003,0.718964629121
9865, KIWXOE , O=N(=O)c1ccc(NN=C2CCCCCCCCCCCCCC2)c(c1)N(=O)=O , P-1 ,1,1,1.30763873836,0.71612222174
9866, WIBCIT , CC(C)(C)N=[N+]([O-])C(C)(C)CC(O)=O , P-1 ,1,1,1.19230468689,0.659376295321
9867, MIZJIP , CCOC(=O)C1=C(C)N(C(=C(C1c1cccc(c1)N(=O)=O)C(=O)OCC)C)c1ccc(OC)cc1 , P21/c ,1,1,1.3084397108499999,0.613573082988
9868, OQUPUM01 , O=N(=O)c1ccc(cc1)C=Nc1ccc(cc1)N=Cc1ccc(cc1)N(=O)=O , P21/c ,1,0,1.44504841746,0.711564554848
9869, RITMAK01 , O=N(=O)c1cccc2c1Nc1ccccc21 , P21/n ,0,0,1.4966920223299998,0.7301702049050001
9871, HYAZCD , ON1CCCCCCN(O)CCCCCC1 , P21/a ,0,1,1.14695255569,0.71425155428
9872, CUKCER , Nc1nc(nc(N)c1N=O)N1CCOCC1 , P21/c ,1,0,1.54460229326,0.732663030448
9875, MAYKUV , CC(O)C1C2OC(C)(C)OC2C2N1CC1CC21N(=O)=O , P212121 ,0,0,1.3056550597499998,0.658972527473
9876, HAHRIU , NC1=C(C=CC2=[N+]([O-])C3(CCCCC3)N=C12)N(=O)=O , P21/c ,1,1,1.4523007161700001,0.704872646733
9877, EOISOX10 , OCCN1C(=O)C(=NO)c2ccccc12 , Pcab ,0,0,1.43455058491,0.7252801582070001
9879, CIVTOQ10 , O=C1Oc2c(cc(c(c2N(=O)=O)N(=O)=O)N(=O)=O)c2ccc(cc12)N(=O)=O , P1121/b ,0,0,1.77892346811,0.719782282282
9880, GISWEK , CN1c2ccc(cc2C(C)(C)C21Oc1ccc3ccccc3c1N=C2)N(=O)=O , P21/c ,1,0,1.33106027513,0.679074801168
9881, REKZEP , CCCCCCN1c2ccc(cc2c2cc(ccc12)c1ccc(cc1)N(=O)=O)c1ccc(cc1)N(=O)=O , P-1 ,1,1,1.32236981407,0.6823949749320001
9882, PIJBAL , CC(C)CN(CC(C)C)Cc1cc(ccc1O)N(=O)=O , P212121 ,0,0,1.15069829765,0.638931405896
9883, NACXEU , O=N(=O)C12C3C4(C1C1(C2C3(N(=O)=O)C41N(=O)=O)N(=O)=O)N(=O)=O , P21/c ,1,0,1.9590901428299998,0.758685268979
9884, ANEJAG , O=C(N1CCNCC1)c1ccc(cc1)N(=O)=O , C2/c ,1,0,1.45354640246,0.735975927834
9885, ULAVEK , CC1=NON=C1C1=NN(C=C1)N(=O)=O , P21/c ,1,1,1.60277211227,0.716904200801
9887, YAJMAY , CCCN1C(=O)C(=O)C=C1c1ccc(cc1)N(=O)=O , C2/c ,1,0,1.4210104627000002,0.7160182801780001
9888, ATUHAA , NC(=NO)N1CCOCC1 , P21/c ,1,0,1.3954324944299998,0.713666485113
9889, JIXDID , O=C(Nc1cc2C3CCC(C3)c2cn1)c1ccc(cc1)N(=O)=O , P21/c ,1,0,1.7967617801900002,0.754718865475
9890, JUFKIE , None , P-1 ,1,1,1.4556116698800001,0.6901578813339999
9891, BAQJEI , CC(=O)CC(c1ccccc1)C(=Cc1ccccc1N(=O)=O)N(=O)=O , P-1 ,1,1,1.3545682508899999,0.675127837251
9892, NEWMOS , [NH3+]C(CC1CC(=NO1)C(=O)[O-])C(O)=O , P212121 ,0,0,1.51863283449,0.708518298438
9893, ABEJOH , O=C1NC2C(N(CN2N(=O)=O)N(=O)=O)N1N(=O)=O , P21/c ,1,0,1.9593096210499998,0.763680952136
9894, GIRKIC , CC(OC(=O)c1cccc(c1)N(=O)=O)C12CC3CCCN3C1=CC(=O)O2 , P21 ,0,1,1.45310750299,0.719515242379
9895, NOLZUJ , COC(=O)C1NC(c2ccccc2O)C(C)(C1c1ccc(OC)cc1)N(=O)=O , P21/c ,1,0,1.3509547512200002,0.6925640712219999
9896, QEFCIN , O=C1N(c2ccc(cc2)N(=O)=O)C(=O)c2ccc3C(=O)N(c4ccc(cc4)N(=O)=O)C(=O)c4ccc1c2c34 , Pmna ,1,0,1.61620704586,0.742012298047
9897, BACTUV , COC(=O)C(O)C1CCC2CC(=N([O])C12C)OC1CCCCC1c1ccccc1 , P21/c ,1,0,1.29153623375,0.6995931849539999
9898, PUPXIJ , OCC1CC2(C(c3ccc(cc3)N(=O)=O)C3(C1c1ccc(cc1)N(=O)=O)C(=O)c1ccccc1C3=O)C(=O)c1ccccc1C2=O , P21/c ,1,1,1.14326782329,0.559976816344
9899, JECVAO , OC(CN1CC1)CN1C=CN=C1N(=O)=O , P21/c ,1,0,1.4025890874200002,0.706483492947
9902, DAYVIK , CC1CN(C(=O)N1c1cccc(c1)N1CC(C)N(C1=O)c1cccc(c1)N(=O)=O)c1ccccc1 , P21 ,0,0,1.38786514796,0.702700925731
9903, YETVAX , CC1=CC(=NO1)NC(=CC(=O)c1ccccc1)C(=O)c1ccccc1 , P21/c ,1,0,1.30553950972,0.6773049645389999
9904, ONBZAM , NC(=O)c1ccccc1N(=O)=O , P21/a ,0,0,1.44051291615,0.693943095839
9905, ZARDAZ , CCOc1cccc(C=NO)c1OCC(=Cc1ccccc1)C(=O)OC , P21/n ,0,0,1.30519639308,0.686764326654
9906, DAYSIG , O=N(=O)c1ccc(NN=Cc2cccc(OCc3ccccc3)c2)c(c1)N(=O)=O , P-1 ,1,1,1.44316102188,0.708809342473
9907, SADLAM , OCC(CO)Nc1ccc(C=Cc2ccc(cc2)N(=O)=O)cc1N(=O)=O , P21/n ,0,0,1.49930543315,0.729651744136
9908, WEFJEZ , CN(C)C(=O)c1cccc(c1c1c(cccc1N(=O)=O)C(=O)N(C)C)N(=O)=O , P-1 ,1,1,1.44831229587,0.7149294670849999
9909, CECCIY , O=N(=O)c1cccc2CNc3c4ccccc4ccc3c12 , P21/c ,1,0,1.4227172307,0.711830915913
9910, AHICUR , CC(C)=NN(c1ccccc1)c1ccccc1N(=O)=O , P21/c ,1,1,1.23417742445,0.640465838509
9911, URIYUR , Cc1ccc(C)c(CN2C3ON=C(CC3(C)c3ccccc23)c2ccccc2)c1 , P-1 ,1,1,1.27446973082,0.69351968534
9912, KIMBAM , O=N(=O)c1ccc(cc1)N(=O)=O , P21/n ,0,0,1.68246929456,0.775084175084
9913, OJIZUE , C1CC2N(C1)C(c1ccccc1)C1=C(ON=C21)c1ccccc1 , P212121 ,0,0,1.2967963346100002,0.6936221358429999
9914, JESHEV , CC1=NC2=NC=NN2C(c2ccccc2)C1=NO , Pbca ,1,0,1.35044062898,0.671284450131
9916, GALDAZ , O=N(=O)c1ccc(cc1)C=NCCCN=Cc1ccc(cc1)N(=O)=O , C2/c ,1,1,1.4340870730000002,0.726466919408
9917, ZUTFEB , CC1(C)CC(CC(C)(C)N1[O])NC1CC(C)(C)N([O])C1(C)C , P21 ,0,0,1.11788948949,0.648420647149
9918, BUKXUA , CC(=O)OCC(OC(C)=O)C(OC(C)=O)C(OC(C)=O)C(COC(C)=O)=NNc1ccc(cc1N(=O)=O)N(=O)=O , P212121 ,0,0,1.37065674479,0.659668681569
9919, ABOFIH , COc1ccc(cc1C1C(C(ON1c1ccccc1)c1ccccc1)N(=O)=O)C(C)(C)C , P-1 ,1,0,1.2245540292100001,0.661161344274
9920, QICMOE , CC1(C)OC2OC(COC(=O)c3ccccc3)C(O)(C2O1)C1=NOC(=N1)c1ccccc1 , P212121 ,0,0,1.37765577081,0.704205590491
9921, QAMZOV , CC12CCCC1N(OCc1ccccc1)C(=O)CC2 , P-1 ,1,1,1.21387015305,0.67037037037
9922, FETZOT , CC1C2Cc3c(CC2ON(C2CCCCC2)C1C#N)cccc3N(=O)=O , P21/n ,0,1,1.2683597224299998,0.677768466987
9923, APUYEP , CC(C)(C)N([O])c1ccc2c(c1)C(C)(C)C1=C2c2ccc(cc2C1(C)C)N([O])C(C)(C)C , P2/c ,1,0,1.1741958290999999,0.667767841531
9924, HOGZAF , CC1=CCC23CC=CCC(C)(C=CC12)C3OC(=O)c1cc(cc(c1)N(=O)=O)N(=O)=O , P21 ,0,0,1.35307889248,0.6802837870690001
9925, XENGAZ , COc1ccccc1N=CC=Cc1ccccc1N(=O)=O , P21/c ,1,0,1.3138537837,0.677686836939
9926, KEQKIB , O=C(NN=Cc1ccccc1N(=O)=O)c1cccc(n1)C(=O)NN=Cc1ccccc1N(=O)=O , C2/c ,1,0,1.45157331341,0.726591080877
9927, HUFKOJ , COC(=O)c1c(C)nc(C)c(C(=O)OCC(C)C)c1c1ccccc1N(=O)=O , P21/c ,1,0,1.29909510783,0.664205084115
9928, ACENIH , CC(=O)OCN(CN(CN(COC(C)=O)N(=O)=O)N(=O)=O)N(=O)=O , C2/c ,1,1,1.5863656943200002,0.713687600644
9929, QIHHAQ , CN1OC2C(C1c1ccccc1)C(=O)N(C)C2=O , P21/n ,0,0,1.3375520782299999,0.680201556321
9930, ZACNEZ , CC(=O)Nc1ccc(NC(C)=O)c(c1N(=O)=O)N(=O)=O , P-1 ,1,1,1.5239590585799998,0.7001598221109999
9931, LIJYUY , O=C1C2CN(Cc3ccccc3)OC2C2COC(N12)c1ccccc1 , P212121 ,0,0,1.3251545458299998,0.6977602108040001
9932, BIGQUD , COc1ccc(COC2CC(C3C(C(ON3O2)c2ccccc2)N(=O)=O)c2ccccc2)cc1 , P-1 ,1,1,1.29838679419,0.670783283283
9933, YIXPIF , CCCCCCCCCCCOc1ccc(cc1)C(=O)Oc1ccc(OC(=O)c2ccc(NN=[N+]([O-])c3ccccc3)cc2)cc1 , P-1 ,1,1,1.25422526873,0.673890333522
9934, CADHUN , CC(=O)C1(CO1)C(O)c1ccc(cc1)N(=O)=O , P-1 ,1,1,1.41335094865,0.692901234568
9935, SILTOW11 , O=C(Nc1cccc(c1)N(=O)=O)Nc1cccc(c1)N(=O)=O , P21/c ,1,0,1.5792217015099999,0.7321272885789999
9937, XISJUF , CC(=O)OC(OC(C)=O)c1cccc(c1)N(=O)=O , P-1 ,1,1,1.41200650627,0.679876601804
9938, PILVEO , CON=C(C)c1ccc(cc1)N=Cc1cc(C)ccc1O , P21/c ,1,1,1.28893214485,0.7041303976790001
9939, FULPEH01 , COC(=O)C1=C(C)NC(=C(C1c1cccc(c1)N(=O)=O)C(=O)OCC(C)C)C , P-1 ,1,1,1.32182011791,0.683625080499
9940, POSRUM , COC(=O)C1CC2(C=CC(=O)C=C2)[N+](=C1c1ccc(OC)cc1)[O-] , P-1 ,1,1,1.39139774028,0.703812316716
9941, TUJDUY , CCOC(=O)C1=C(N(=C(C1=O)C(C)(C)C)[O])C(C)(C)C , P-1 ,1,1,1.1450699259700001,0.6304840032810001
9942, XEDTAC , CCC(C1NC(=C(C#N)N(CC)C1OC)C#N)N(=O)=O , P-1 ,1,1,1.2393664177700001,0.6425011159049999
9943, NIJHOD , COC(=O)C1C(CCOC(=O)c2ccc(cc2)N(=O)=O)C1C(C)(C(=O)OC)C(=O)OC , P-1 ,1,1,1.39656838987,0.696193117445
9944, KEDWIZ , CC(C)C1(O)C=C(N(=O)=O)C(C)(C(ON(=O)=O)C1N(=O)=O)N(=O)=O , Pbcn ,1,0,1.5974837833200002,0.7155138350470001
9945, ZUHVIH , O=N(=O)C1C(Oc2ccccc2C1C(C1=CCCCC1)N(=O)=O)c1ccc2OCOc2c1 , P21/n ,0,0,1.4367040138,0.70703536781
9946, KEFJOX , CC1(C)CC(CO)C(C)(C)N1[O] , P21 ,0,1,1.18608730476,0.705164992826
9947, FEFXUM , NC1=NON=C1C1=NON=C1C1=NON=C1N(=O)=O , P21/c ,1,1,1.7673116239400002,0.7071112191429999
9948, DAVJAN , [O]N1=NN(C(=O)C=Cc2ccccc2N(=O)=O)c2ccccc12 , Pna21 ,0,0,1.55842452223,0.743989603639
9949, GAMNEQ , CC(C)(C)C1=CC(=NC2CC(C)(C)N([O])C(C)(C)C2)C(=C(O)C1=O)C(C)(C)C , P21/n ,0,0,1.1529523533600001,0.667803030303
9950, GADWUE , ON=CC1=CC=C2C=CC=CC=C12 , P212121 ,0,0,1.26864636856,0.667892654221
9951, VURTIN , CC(C)C1ON=C2C1CCC12CCC2C(ON=C12)C(C)C , C2/c ,1,1,1.2522737241500002,0.7007417906919999
9952, NOZYAC , CN1c2ccccc2C(C)(C)C21Oc1c(cc3ccccc3c1N=C2)C=N([O])C(C)(C)C , P21/c ,1,0,1.20530060298,0.6722790697669999
9955, HODGAJ , COc1ccc(cc1)C1CC(=NO)C(Cc2ccccc2)C(N1)c1ccc(OC)cc1 , Pbca ,1,0,1.2468204702299999,0.674103053569
9956, POBYIO , CCOC(=O)C1CC2CC(O)C3CC1C2C3=NNc1ccc(cc1N(=O)=O)N(=O)=O , P21/c ,1,0,1.42629248437,0.7106362420100001
9957, XESBAZ , Cc1ccc(cc1)C1CC(=O)C(C(N1N=O)c1ccc(C)cc1)c1ccccc1 , P-1 ,1,1,1.21970823273,0.65662362506
9958, KEPGOB , CC(=NNc1ccc(cc1N(=O)=O)N(=O)=O)c1ccc(cc1)C1CC1 , P21/c ,1,1,1.44096911753,0.714657286532
9959, KUMSUI , CC(ON1C(C)(C)CCCC1(C)C)C(O)c1ccccc1 , P21/n ,0,0,1.14754112202,0.6790145338529999
9961, KAMBAC , OC12CCCC1(CCC2C=C)COC(=O)c1ccc(cc1)N(=O)=O , P21/c ,1,1,1.3310025091600002,0.690681393468
9962, BIHWUL , COC(=O)Cc1ccccc1OCC1=NC(=NO1)c1ccc(cc1)N(=O)=O , P21/c ,1,0,1.4397660762600002,0.697497749444
9963, XEVQAS , COC1OCCCC1C(NC1OC(COC(=O)C(C)(C)C)C(OC(=O)C(C)(C)C)C(OC(=O)C(C)(C)C)C1OC(=O)C(C)(C)C)c1ccc(cc1)N(=O)=O , C2221 ,0,0,1.17393976702,0.649017001534
9964, PICFOW , CC(=O)C=C(C)Nc1ccc(cc1)N(=O)=O , P21/n ,0,0,1.34995818488,0.685645933014
9965, ILOGAT , CN(CN1N=C(N=C1C1=NC(=NN1CN(C)N(=O)=O)N(=O)=O)N(=O)=O)N(=O)=O , C2/c ,1,1,1.69769264192,0.7221607884219999
9967, GEJSET , CCC=C1C=CC(=O)C(O)C21C(=O)N(OC)C(=C)C2=O , P212121 ,0,0,0.656578174148,0.337149259278
9968, VIRDEH , CC1(C)OC2=C(C1N1C=C(N=N1)c1ccccc1)C(=O)C(=NO)c1ccccc21 , P21 ,0,0,1.3924317387799998,0.700826227117
9969, BAVREY , CN(N=O)C(=O)C=Cc1ccccc1 , P21/n ,0,0,1.35510982819,0.717234773418
9971, PESNOQ , OCC1CCC[N+]1([O-])Cc1ccccn1 , P212121 ,0,0,1.3174720979899999,0.729376633072
9972, XAXRIX , Cc1ccc(cc1)N(CC#C)CC1=CC=C(O1)N(=O)=O , P-1 ,1,1,1.3143391135299998,0.693371158392
9973, TALDIW , OCC1OC(O)C(O)C(C1O)N(=O)=O , P212121 ,0,0,1.6366515928999998,0.738308591993
9974, EDUNOJ , CC(C)c1cc(cc(C(C)C)c1O)N(=O)=O , P-1 ,1,1,1.27411339199,0.693318809005
9975, SAGQUP , CCOC(=O)C1=C(C)NC2=Nc3ccccc3N2C1c1ccccc1N(=O)=O , P-1 ,1,1,1.4304191970500002,0.7024500907439999
9976, EDAWIP , NC=CN(=O)=O , P21/c ,1,1,1.51326503884,0.707535321821
9977, SESWUJ , Nc1ccccc1NCc1ccc(cc1)N(=O)=O , P21/c ,1,0,1.39024482597,0.720150301539
9979, MUQHAJ , Oc1c(cc(cc1C1=CC=CN1)N(=O)=O)C1=CC=CN1 , P21/n ,0,0,1.50243836243,0.725539977264
9980, EZUFUA , CC(C)C(=O)NOC(C)CC(=O)NOC(C)CC(=O)NC1CCCCC1 , P1 ,0,1,1.16383954216,0.63188
9983, PICGUF , O=C(C=Cc1ccc2OCOc2c1)c1cccc(c1)N(=O)=O , P212121 ,0,0,1.4594753357499999,0.7091963593889999
9984, SATCUM , CC(=CC1=C(Nc2ccccc12)c1ccccc1)N(=O)=O , P212121 ,0,0,1.35265093405,0.7048978275390001
9985, LIBXEZ , O=N(=O)c1ccc2nn(cc2c1)c1ccccc1 , P21/c ,1,1,1.4662778407400001,0.720200451722
9986, UHIBIW , COC1OC2C(OCc3ccccc3)C1C(C2OCc1ccccc1)N(=O)=O , P212121 ,0,0,1.25326499137,0.638758692522
9987, YACFOX , OCC(O)C(C1OC(CO)C(O)C(O)C1O)N(=O)=O , P21 ,0,1,1.5563258597,0.658916623778
9988, OFUCUQ , COc1ccc(cc1)C(=O)NN1CC(=O)N(CC1=O)NC(=O)c1ccc(cc1)N(=O)=O , P-1 ,1,1,1.4604293754799997,0.681984372696
9990, ODAWIA01 , OC(=O)Cc1ccccc1N(=O)=O , P21/n ,0,0,1.4358979966999998,0.668702702703
9991, AQIJOZ , CC1(C)N=C(N([O])C1(C)C)N1N=Nc2ccccc12 , P21/n ,0,0,1.28534538666,0.665589201482
9992, PUNGEM , CCOC(=O)CC(C)=NNC(=O)C1=Cc2cc(C)cc(c2N1)N(=O)=O , P-1 ,1,1,1.3631260879700002,0.68390776341
9993, GASYEG , CN1C2CCCC1C(C(O)c1ccc(cc1)N(=O)=O)C(=O)C2 , P-1 ,1,1,1.3684245651700002,0.706714527027
9994, POTKUE , CCCCCC1CCC(CC1)c1ccc(cc1)c1ccc(cc1)C(=O)OC1CC(C)(C)N([O])C(C)(C)C1 , P21/c ,1,0,1.13220458158,0.650972069111
9996, QOTVIE , O=C(OC1CC2C=CC3CC123)c1ccc(cc1)N(=O)=O , Pbca ,1,0,1.38059354604,0.702815130401
9998, FEHFAC , CCOC(=O)CC(=C(Nc1cc2c(Nc3ccccc23)c(C(=O)OC)c1c1ccccc1)c1ccc(OC)cc1)N(=O)=O , P-1 ,1,1,1.32075266146,0.663484848485
10001, UHACOV , Cc1ccc(cc1)C(O)=C1C(=O)ON=C1c1ccccc1 , Pca21 ,0,0,1.32925788406,0.681680528185
10002, LOLGUP , O=N(=O)c1cccc(c1)N1C=C(N=N1)c1ccccc1 , P21/c ,1,0,1.4260656822,0.6993216268379999
10003, CUNNOQ , CC(C)C(=NNc1ccc(cc1C)N(=O)=O)C(Nc1ccc(C)cc1)c1ccccc1 , P212121 ,0,0,1.2370211050700002,0.6797584541060001
10004, WOXXAK , CN(C)C(=O)CN1C=C(C=N1)C1=NC(=NO1)C(C)(C1CC1)c1ccc(cc1)c1cnc(N)nc1 , P212121 ,0,0,1.36123570745,0.705188545907
10005, FELBUV , C1ON(CC2=CCN(OC12)c1ccccc1)c1ccccc1 , Pca21 ,0,0,1.32731393074,0.708325157896
10006, TEHXUZ , CC1=C(C(c2cccc(c2)N(=O)=O)C(=C(C)N1)C(=O)OC(C)(C)C)C(=O)OC(C)(C)C , P21/n ,0,0,1.2136071624,0.660510472846
10007, LAQKIZ , CC(C(O)c1ccc(cc1)N(=O)=O)N(=O)=O , P21/c ,1,1,1.4364098393200002,0.6917807233419999
10008, ENIMOD , CCN(OC)C12c3ccccc3C(c3ccccc13)c1c(C)ccc(C)c21 , P21/c ,1,0,1.24595313696,0.695268817204
10009, HAHCAV , COc1ccc(cc1)[n+]1noc([O-])c1C(=O)C=CC=Cc1ccccc1 , P21 ,0,0,1.3166713270200001,0.675120644383
10010, XAGCOX , CC1OCC(OC(C)=O)C(O1)C1=NOC(C(COC(C)=O)OCc2ccccc2)C1NC(=O)OC(C)(C)C , P21 ,0,0,1.2735884930799999,0.652681331482
10011, MIZJEM01 , CC(=C)C(=O)ON1C(=O)CCC1=O , P21/c ,1,0,1.34666881829,0.667505963424
10012, IQUVOH , CONC1CCCC2(C)C1N(C)C(=O)N(C)C2=O , P21/n ,0,0,1.32194073899,0.699288745443
10013, HIXLUX , CN(C)C(=Nc1ccc(cc1)N(=O)=O)N(C)c1ccccc1 , C2/c ,1,0,1.3162952403100001,0.691827029823
10014, XIZCOZ , CCOC(=O)C12Cc3ccccc3CN1C(C1C(C(=O)N1c1ccc(OC)cc1)c1ccccc1)C(C2c1ccc(OC)cc1)N(=O)=O , P212121 ,0,0,1.28985501166,0.671927883364
10015, RUPFEO , CC1(C)CC(O)CC(C)(C)N1N=O , P32 ,0,0,1.2539313079799999,0.703565349816
10016, PUJJEK , CC1=NC=C(N1CCOC(=O)c1ccccc1N(=O)=O)N(=O)=O , P21/c ,1,0,1.52780696717,0.718986798326
10017, SEMYIT , COC(=O)C(C#N)=C(OC)c1ccccc1N(=O)=O , Pna21 ,0,0,1.45391987551,0.713307189542
10018, ZAWRUN , COc1ccc(cc1CN(Cc1cc[n+]([O-])cc1)c1ccc(OC)c(c1)C1OCCO1)N(Cc1ccc(O)cc1)Cc1cc(ccc1OC)N(=O)=O , P-1 ,1,1,1.35513626777,0.695118620925
10019, HEJMOB , CC(O)=C(C(C)=O)C(=C)c1ccc(cc1)N(=O)=O , P-1 ,1,0,1.28694741577,0.663430127042
10020, GOLJIA , CC(=O)OC1C2CON(Cc3ccccc3)C2C(OC(C)=O)C1OC(C)=O , P212121 ,0,0,1.29523373981,0.662018944694
10021, YICREJ , COC(=O)C1C(C(C(O)C2=C1Nc1ccccc21)N(=O)=O)c1ccccc1 , P21/n ,0,1,1.4086303353,0.697504409171
10022, UWOFAP , Cc1ccc(cc1)N=NNc1ccc(C)cc1N(=O)=O , P21/n ,0,0,1.34527270645,0.6939225231
10025, NNAPAN10 , O=C1OC(=O)c2ccc(c3c2c1ccc3N(=O)=O)N(=O)=O , P21/c ,1,0,1.7770576073599997,0.752232206533
10026, HEKWUP , CN1C(=C(C=NO)C(=O)N(C)C1=O)N , I41/a ,1,0,1.42225401609,0.6925938508580001
10027, GAZDUG , None , P21/n ,0,1,1.42222695083,0.70525017618
10028, JIWPOU01 , NC(=NO)c1ccccn1 , C2/c ,1,0,1.4668499124899999,0.735131690739
10029, OXAJAA , CON=C(C)C1(N(O)C(C)=O)C(=NN(C)C1=O)C , Pna21 ,0,0,1.31749480294,0.671777647975
10030, LOLQEI , COC(=O)C(NC(C)=O)C(CN(=O)=O)c1ccc(OC)cc1 , P21/c ,1,1,1.3459146031600002,0.6823946801749999
10031, HOFREA , CCON=C(c1ccccc1)C1=C(C)NN(C1=O)c1ccccc1 , P21/c ,1,0,1.2417661024700002,0.64889396596
10032, PIWBED01 , COc1ccc(cc1)C1=NO[N+](=C1c1ccc(OC)cc1)[O-] , Pbca ,1,0,1.40105143445,0.7081092813150001
10033, TECSUQ01 , CN1N(c2ccccc2)C(=O)C(=C1C)N=Cc1cccc(c1)N(=O)=O , P21/c ,1,1,1.34144526524,0.67735042735
10034, KAXFIZ , COC(C)(C1CC(=NO1)c1ccc(cc1)N(=O)=O)C(C)(C)C , P-1 ,1,1,1.3523392672799999,0.72440087146
10037, XOHCII , CCC(C(C)C(=O)c1ccccc1)N(=O)=O , P21 ,0,1,1.25194627377,0.681327393537
10038, DURDID , CC1=CC(C)(C)[N+](=[N+]1[O-])[O-] , P-1 ,1,1,1.2788328097200001,0.674918300654
10039, FEWMAV , CCN(CC)C(=O)C(C)=C(C(C)=NOC(=O)c1ccccc1)c1ccccc1 , P21/n ,0,0,1.16931976272,0.644092508798